       N       E                     dE             d eps       ncg     rms          rms(c)
DAV:   1     0.102293715062E+05    0.10229E+05   -0.48133E+05  1592   0.116E+03
DAV:   2    -0.444296295990E+03   -0.10674E+05   -0.95729E+04  1960   0.483E+02
DAV:   3    -0.169721740178E+04   -0.12529E+04   -0.12327E+04  2000   0.135E+02
DAV:   4    -0.176565960448E+04   -0.68442E+02   -0.68058E+02  2528   0.498E+01
DAV:   5    -0.176664322340E+04   -0.98362E+00   -0.98024E+00  2008   0.524E+00    0.993E+01
DAV:   6    -0.160837219763E+04    0.15827E+03   -0.39472E+02  2408   0.339E+01    0.743E+01
DAV:   7    -0.160754490562E+04    0.82729E+00   -0.20821E+01  2024   0.607E+00    0.544E+01
DAV:   8    -0.160644652100E+04    0.10984E+01   -0.77159E+00  2064   0.646E+00    0.135E+01
DAV:   9    -0.160618313990E+04    0.26338E+00   -0.15540E+00  2008   0.263E+00    0.219E+00
DAV:  10    -0.160620027165E+04   -0.17132E-01   -0.17266E-01  2264   0.608E-01    0.109E+00
DAV:  11    -0.160617449332E+04    0.25778E-01   -0.31482E-02  2056   0.542E-01    0.409E-01
DAV:  12    -0.160614629244E+04    0.28201E-01   -0.33173E-02  1992   0.455E-01    0.292E-01
DAV:  13    -0.160613864570E+04    0.76467E-02   -0.16345E-02  2160   0.284E-01    0.182E-01
DAV:  14    -0.160613715311E+04    0.14926E-02   -0.54889E-03  2096   0.138E-01    0.146E-01
DAV:  15    -0.160613636276E+04    0.79034E-03   -0.81816E-04  2376   0.656E-02    0.642E-02
DAV:  16    -0.160613575564E+04    0.60712E-03   -0.24421E-04  2400   0.877E-02    0.272E-02
DAV:  17    -0.160613573374E+04    0.21896E-04   -0.49427E-04  2104   0.385E-02    0.287E-02
DAV:  18    -0.160613572500E+04    0.87477E-05   -0.10918E-04  2008   0.170E-02    0.219E-02
DAV:  19    -0.160613572005E+04    0.49487E-05   -0.10423E-05  1560   0.775E-03
      1 T=   271. E= -.15544670E+04 F= -.16272529E+04 E0= -.16272529E+04  EK= 0.11622E+02 SP= 0.61E+02 SK= 0.61E-02
       N       E                     dE             d eps       ncg     rms          rms(c)
DAV:   1    -0.160604177328E+04    0.93952E-01   -0.22681E+01  1552   0.764E+00    0.212E+00
DAV:   2    -0.160608780053E+04   -0.46027E-01   -0.55788E-01  2312   0.140E+00    0.149E+00
DAV:   3    -0.160608897758E+04   -0.11770E-02   -0.27325E-02  2528   0.318E-01    0.920E-01
DAV:   4    -0.160609095254E+04   -0.19750E-02   -0.49503E-03  1928   0.153E-01    0.272E-01
DAV:   5    -0.160609126258E+04   -0.31004E-03   -0.15732E-03  2248   0.806E-02    0.868E-02
DAV:   6    -0.160609122352E+04    0.39060E-04   -0.51396E-04  2368   0.415E-02    0.709E-02
DAV:   7    -0.160609118883E+04    0.34689E-04   -0.63884E-05  1960   0.208E-02    0.322E-02
DAV:   8    -0.160609116330E+04    0.25536E-04   -0.26636E-05  1728   0.152E-02    0.988E-03
DAV:   9    -0.160609115905E+04    0.42468E-05   -0.18487E-05  1744   0.796E-03
      2 T=   270. E= -.15544655E+04 F= -.16272074E+04 E0= -.16272074E+04  EK= 0.11575E+02 SP= 0.61E+02 SK= 0.59E-02
       N       E                     dE             d eps       ncg     rms          rms(c)
DAV:   1    -0.160600275859E+04    0.88405E-01   -0.46625E-01  1608   0.201E+00    0.893E-01
DAV:   2    -0.160602109134E+04   -0.18333E-01   -0.19569E-01  2056   0.684E-01    0.504E-01
DAV:   3    -0.160602139599E+04   -0.30465E-03   -0.86480E-03  2552   0.182E-01    0.382E-01
DAV:   4    -0.160602130047E+04    0.95520E-04   -0.95297E-04  2256   0.644E-02    0.149E-01
DAV:   5    -0.160602131696E+04   -0.16488E-04   -0.22368E-04  2128   0.318E-02    0.417E-02
DAV:   6    -0.160602131418E+04    0.27754E-05   -0.85570E-05  2256   0.165E-02
      3 T=   268. E= -.15544630E+04 F= -.16271361E+04 E0= -.16271361E+04  EK= 0.11502E+02 SP= 0.61E+02 SK= 0.57E-02
       N       E                     dE             d eps       ncg     rms          rms(c)
DAV:   1    -0.160596202103E+04    0.59296E-01   -0.22372E-02  2152   0.166E+00    0.426E-01
DAV:   2    -0.160596688413E+04   -0.48631E-02   -0.50965E-02  1976   0.328E-01    0.176E-01
DAV:   3    -0.160596697833E+04   -0.94201E-04   -0.21128E-03  2584   0.101E-01    0.125E-01
DAV:   4    -0.160596694627E+04    0.32061E-04   -0.19449E-04  2160   0.269E-02    0.381E-02
DAV:   5    -0.160596694258E+04    0.36846E-05   -0.31239E-05  1856   0.132E-02
      4 T=   267. E= -.15544610E+04 F= -.16270794E+04 E0= -.16270794E+04  EK= 0.11444E+02 SP= 0.61E+02 SK= 0.54E-02
       N       E                     dE             d eps       ncg     rms          rms(c)
DAV:   1    -0.160596071009E+04    0.62362E-02   -0.21574E-02  2176   0.165E+00    0.377E-01
DAV:   2    -0.160596553991E+04   -0.48298E-02   -0.50093E-02  1952   0.325E-01    0.198E-01
DAV:   3    -0.160596565515E+04   -0.11524E-03   -0.20820E-03  2544   0.979E-02    0.149E-01
DAV:   4    -0.160596563346E+04    0.21687E-04   -0.20750E-04  2152   0.284E-02    0.426E-02
DAV:   5    -0.160596563358E+04   -0.12359E-06   -0.35123E-05  1920   0.133E-02
      5 T=   267. E= -.15544603E+04 F= -.16270751E+04 E0= -.16270751E+04  EK= 0.11437E+02 SP= 0.61E+02 SK= 0.52E-02
       N       E                     dE             d eps       ncg     rms          rms(c)
DAV:   1    -0.160602584974E+04   -0.60216E-01   -0.19338E-02  2216   0.165E+00    0.386E-01
DAV:   2    -0.160603048542E+04   -0.46357E-02   -0.48213E-02  1888   0.320E-01    0.181E-01
DAV:   3    -0.160603059478E+04   -0.10936E-03   -0.20489E-03  2624   0.981E-02    0.132E-01
DAV:   4    -0.160603057002E+04    0.24757E-04   -0.17673E-04  2176   0.261E-02    0.376E-02
DAV:   5    -0.160603056975E+04    0.26881E-06   -0.31770E-05  1952   0.128E-02
      6 T=   268. E= -.15544621E+04 F= -.16271364E+04 E0= -.16271364E+04  EK= 0.11493E+02 SP= 0.61E+02 SK= 0.49E-02
       N       E                     dE             d eps       ncg     rms          rms(c)
DAV:   1    -0.160613617123E+04   -0.10560E+00   -0.18396E-02  2184   0.167E+00    0.382E-01
DAV:   2    -0.160614074723E+04   -0.45760E-02   -0.47424E-02  1928   0.318E-01    0.182E-01
DAV:   3    -0.160614085060E+04   -0.10338E-03   -0.19294E-03  2640   0.948E-02    0.132E-01
DAV:   4    -0.160614083336E+04    0.17244E-04   -0.17724E-04  2208   0.256E-02    0.364E-02
DAV:   5    -0.160614083512E+04   -0.17555E-05   -0.28392E-05  1784   0.121E-02
      7 T=   270. E= -.15544648E+04 F= -.16272425E+04 E0= -.16272425E+04  EK= 0.11593E+02 SP= 0.61E+02 SK= 0.47E-02
       N       E                     dE             d eps       ncg     rms          rms(c)
DAV:   1    -0.160625053042E+04   -0.10970E+00   -0.17732E-02  2160   0.168E+00    0.380E-01
DAV:   2    -0.160625503540E+04   -0.45050E-02   -0.46696E-02  1912   0.318E-01    0.180E-01
DAV:   3    -0.160625514675E+04   -0.11134E-03   -0.19623E-03  2640   0.973E-02    0.131E-01
DAV:   4    -0.160625513334E+04    0.13409E-04   -0.17189E-04  2176   0.244E-02    0.382E-02
DAV:   5    -0.160625513636E+04   -0.30219E-05   -0.23890E-05  1672   0.116E-02
      8 T=   273. E= -.15544672E+04 F= -.16273526E+04 E0= -.16273526E+04  EK= 0.11697E+02 SP= 0.61E+02 SK= 0.45E-02
       N       E                     dE             d eps       ncg     rms          rms(c)
DAV:   1    -0.160632691139E+04   -0.71778E-01   -0.20327E-02  2232   0.169E+00    0.394E-01
DAV:   2    -0.160633171311E+04   -0.48017E-02   -0.49796E-02  1928   0.324E-01    0.179E-01
DAV:   3    -0.160633183410E+04   -0.12099E-03   -0.20741E-03  2568   0.987E-02    0.129E-01
DAV:   4    -0.160633182326E+04    0.10835E-04   -0.19264E-04  2224   0.258E-02    0.380E-02
DAV:   5    -0.160633182652E+04   -0.32623E-05   -0.24941E-05  1720   0.117E-02
      9 T=   274. E= -.15544684E+04 F= -.16274253E+04 E0= -.16274253E+04  EK= 0.11766E+02 SP= 0.61E+02 SK= 0.43E-02
       N       E                     dE             d eps       ncg     rms          rms(c)
DAV:   1    -0.160634367903E+04   -0.11856E-01   -0.20679E-02  2256   0.169E+00    0.397E-01
DAV:   2    -0.160634859735E+04   -0.49183E-02   -0.51006E-02  1928   0.327E-01    0.190E-01
DAV:   3    -0.160634870579E+04   -0.10844E-03   -0.19721E-03  2528   0.950E-02    0.138E-01
DAV:   4    -0.160634869018E+04    0.15605E-04   -0.21159E-04  2168   0.282E-02    0.362E-02
DAV:   5    -0.160634869295E+04   -0.27684E-05   -0.32746E-05  1904   0.125E-02
     10 T=   274. E= -.15544679E+04 F= -.16274385E+04 E0= -.16274385E+04  EK= 0.11776E+02 SP= 0.61E+02 SK= 0.42E-02
       N       E                     dE             d eps       ncg     rms          rms(c)
DAV:   1    -0.160630357582E+04    0.45114E-01   -0.21307E-02  2232   0.168E+00    0.407E-01
DAV:   2    -0.160630854568E+04   -0.49699E-02   -0.51529E-02  1904   0.328E-01    0.191E-01
DAV:   3    -0.160630866998E+04   -0.12430E-03   -0.21678E-03  2632   0.995E-02    0.137E-01
DAV:   4    -0.160630864938E+04    0.20596E-04   -0.19884E-04  2144   0.278E-02    0.354E-02
DAV:   5    -0.160630865163E+04   -0.22493E-05   -0.36461E-05  1912   0.130E-02
     11 T=   273. E= -.15544664E+04 F= -.16273955E+04 E0= -.16273955E+04  EK= 0.11731E+02 SP= 0.61E+02 SK= 0.41E-02
       N       E                     dE             d eps       ncg     rms          rms(c)
DAV:   1    -0.160622981435E+04    0.78835E-01   -0.21324E-02  2192   0.166E+00    0.397E-01
DAV:   2    -0.160623477419E+04   -0.49598E-02   -0.51448E-02  1896   0.327E-01    0.192E-01
DAV:   3    -0.160623489369E+04   -0.11950E-03   -0.21330E-03  2632   0.986E-02    0.139E-01
DAV:   4    -0.160623487050E+04    0.23190E-04   -0.20495E-04  2160   0.275E-02    0.388E-02
DAV:   5    -0.160623487291E+04   -0.24083E-05   -0.34787E-05  1848   0.125E-02
     12 T=   272. E= -.15544640E+04 F= -.16273192E+04 E0= -.16273192E+04  EK= 0.11654E+02 SP= 0.61E+02 SK= 0.39E-02
       N       E                     dE             d eps       ncg     rms          rms(c)
DAV:   1    -0.160616273355E+04    0.72137E-01   -0.18019E-02  2128   0.162E+00    0.387E-01
DAV:   2    -0.160616728902E+04   -0.45555E-02   -0.47323E-02  1952   0.319E-01    0.189E-01
DAV:   3    -0.160616737879E+04   -0.89771E-04   -0.18200E-03  2616   0.933E-02    0.138E-01
DAV:   4    -0.160616735493E+04    0.23851E-04   -0.19398E-04  2152   0.263E-02    0.381E-02
DAV:   5    -0.160616735729E+04   -0.23510E-05   -0.33265E-05  1840   0.123E-02
     13 T=   270. E= -.15544624E+04 F= -.16272496E+04 E0= -.16272496E+04  EK= 0.11583E+02 SP= 0.61E+02 SK= 0.37E-02
       N       E                     dE             d eps       ncg     rms          rms(c)
DAV:   1    -0.160613780646E+04    0.29548E-01   -0.20237E-02  2208   0.160E+00    0.394E-01
DAV:   2    -0.160614252369E+04   -0.47172E-02   -0.49088E-02  1936   0.319E-01    0.189E-01
DAV:   3    -0.160614262714E+04   -0.10344E-03   -0.19734E-03  2568   0.956E-02    0.138E-01
DAV:   4    -0.160614260469E+04    0.22446E-04   -0.20379E-04  2208   0.269E-02    0.376E-02
DAV:   5    -0.160614260668E+04   -0.19884E-05   -0.31210E-05  1784   0.123E-02
     14 T=   269. E= -.15544613E+04 F= -.16272230E+04 E0= -.16272230E+04  EK= 0.11555E+02 SP= 0.61E+02 SK= 0.35E-02
       N       E                     dE             d eps       ncg     rms          rms(c)
DAV:   1    -0.160617761805E+04   -0.35013E-01   -0.16985E-02  2128   0.159E+00    0.373E-01
DAV:   2    -0.160618192268E+04   -0.43046E-02   -0.44725E-02  1936   0.310E-01    0.187E-01
DAV:   3    -0.160618202070E+04   -0.98016E-04   -0.18276E-03  2608   0.941E-02    0.137E-01
DAV:   4    -0.160618199814E+04    0.22553E-04   -0.18292E-04  2120   0.256E-02    0.356E-02
DAV:   5    -0.160618200055E+04   -0.24044E-05   -0.31850E-05  1800   0.125E-02
     15 T=   270. E= -.15544621E+04 F= -.16272605E+04 E0= -.16272605E+04  EK= 0.11589E+02 SP= 0.61E+02 SK= 0.34E-02
       N       E                     dE             d eps       ncg     rms          rms(c)
DAV:   1    -0.160627273595E+04   -0.90738E-01   -0.15336E-02  2088   0.158E+00    0.354E-01
DAV:   2    -0.160627690979E+04   -0.41738E-02   -0.43394E-02  1880   0.308E-01    0.173E-01
DAV:   3    -0.160627700927E+04   -0.99482E-04   -0.17819E-03  2616   0.963E-02    0.129E-01
DAV:   4    -0.160627698770E+04    0.21566E-04   -0.17754E-04  2176   0.250E-02    0.363E-02
DAV:   5    -0.160627699062E+04   -0.29154E-05   -0.30518E-05  1800   0.120E-02
     16 T=   272. E= -.15544644E+04 F= -.16273534E+04 E0= -.16273534E+04  EK= 0.11677E+02 SP= 0.61E+02 SK= 0.32E-02
       N       E                     dE             d eps       ncg     rms          rms(c)
DAV:   1    -0.160638893247E+04   -0.11194E+00   -0.16570E-02  2128   0.160E+00    0.367E-01
DAV:   2    -0.160639335932E+04   -0.44268E-02   -0.45933E-02  1912   0.315E-01    0.178E-01
DAV:   3    -0.160639346919E+04   -0.10987E-03   -0.19312E-03  2648   0.983E-02    0.132E-01
DAV:   4    -0.160639344921E+04    0.19975E-04   -0.18360E-04  2088   0.255E-02    0.356E-02
DAV:   5    -0.160639345263E+04   -0.34168E-05   -0.31817E-05  1800   0.124E-02
     17 T=   275. E= -.15544673E+04 F= -.16274677E+04 E0= -.16274677E+04  EK= 0.11785E+02 SP= 0.61E+02 SK= 0.31E-02
       N       E                     dE             d eps       ncg     rms          rms(c)
DAV:   1    -0.160648611226E+04   -0.92663E-01   -0.17569E-02  2144   0.163E+00    0.369E-01
DAV:   2    -0.160649068149E+04   -0.45692E-02   -0.47406E-02  1912   0.320E-01    0.183E-01
DAV:   3    -0.160649077976E+04   -0.98275E-04   -0.18870E-03  2616   0.975E-02    0.134E-01
DAV:   4    -0.160649075861E+04    0.21150E-04   -0.20536E-04  2160   0.276E-02    0.363E-02
DAV:   5    -0.160649076229E+04   -0.36803E-05   -0.35631E-05  1808   0.126E-02
     18 T=   277. E= -.15544691E+04 F= -.16275625E+04 E0= -.16275625E+04  EK= 0.11876E+02 SP= 0.61E+02 SK= 0.30E-02
       N       E                     dE             d eps       ncg     rms          rms(c)
DAV:   1    -0.160653786091E+04   -0.47102E-01   -0.18091E-02  2120   0.164E+00    0.377E-01
DAV:   2    -0.160654251877E+04   -0.46579E-02   -0.48404E-02  1920   0.324E-01    0.196E-01
DAV:   3    -0.160654262631E+04   -0.10754E-03   -0.20561E-03  2648   0.103E-01    0.144E-01
DAV:   4    -0.160654260147E+04    0.24841E-04   -0.20905E-04  2224   0.279E-02    0.376E-02
DAV:   5    -0.160654260448E+04   -0.30063E-05   -0.37088E-05  1800   0.132E-02
     19 T=   278. E= -.15544701E+04 F= -.16276118E+04 E0= -.16276118E+04  EK= 0.11921E+02 SP= 0.61E+02 SK= 0.29E-02
       N       E                     dE             d eps       ncg     rms          rms(c)
DAV:   1    -0.160653559108E+04    0.70104E-02   -0.19538E-02  2208   0.166E+00    0.394E-01
DAV:   2    -0.160654055420E+04   -0.49631E-02   -0.51642E-02  1976   0.329E-01    0.198E-01
DAV:   3    -0.160654066978E+04   -0.11558E-03   -0.21469E-03  2608   0.101E-01    0.146E-01
DAV:   4    -0.160654064409E+04    0.25696E-04   -0.21408E-04  2208   0.287E-02    0.399E-02
DAV:   5    -0.160654064654E+04   -0.24541E-05   -0.38388E-05  1864   0.134E-02
     20 T=   278. E= -.15544696E+04 F= -.16276072E+04 E0= -.16276072E+04  EK= 0.11915E+02 SP= 0.61E+02 SK= 0.28E-02
       N       E                     dE             d eps       ncg     rms          rms(c)
DAV:   1    -0.160648982009E+04    0.50824E-01   -0.18322E-02  2168   0.166E+00    0.391E-01
DAV:   2    -0.160649455854E+04   -0.47384E-02   -0.49441E-02  1936   0.322E-01    0.185E-01
DAV:   3    -0.160649466007E+04   -0.10153E-03   -0.19654E-03  2616   0.958E-02    0.138E-01
DAV:   4    -0.160649463418E+04    0.25889E-04   -0.20857E-04  2208   0.277E-02    0.378E-02
DAV:   5    -0.160649463610E+04   -0.19227E-05   -0.34722E-05  1848   0.129E-02
     21 T=   276. E= -.15544690E+04 F= -.16275585E+04 E0= -.16275585E+04  EK= 0.11864E+02 SP= 0.61E+02 SK= 0.27E-02
       N       E                     dE             d eps       ncg     rms          rms(c)
DAV:   1    -0.160641905938E+04    0.75575E-01   -0.20428E-02  2192   0.165E+00    0.407E-01
DAV:   2    -0.160642374990E+04   -0.46905E-02   -0.48964E-02  1936   0.322E-01    0.188E-01
DAV:   3    -0.160642387169E+04   -0.12179E-03   -0.21273E-03  2632   0.101E-01    0.138E-01
DAV:   4    -0.160642385044E+04    0.21255E-04   -0.19334E-04  2176   0.272E-02    0.380E-02
DAV:   5    -0.160642385154E+04   -0.10987E-05   -0.32957E-05  1840   0.131E-02
     22 T=   275. E= -.15544674E+04 F= -.16274849E+04 E0= -.16274849E+04  EK= 0.11789E+02 SP= 0.61E+02 SK= 0.26E-02
       N       E                     dE             d eps       ncg     rms          rms(c)
DAV:   1    -0.160635454105E+04    0.69309E-01   -0.23602E-02  2216   0.165E+00    0.415E-01
DAV:   2    -0.160635941914E+04   -0.48781E-02   -0.50888E-02  1976   0.327E-01    0.201E-01
DAV:   3    -0.160635951815E+04   -0.99014E-04   -0.20376E-03  2560   0.957E-02    0.144E-01
DAV:   4    -0.160635950020E+04    0.17954E-04   -0.21861E-04  2192   0.281E-02    0.372E-02
DAV:   5    -0.160635950098E+04   -0.78870E-06   -0.30318E-05  1816   0.132E-02
     23 T=   273. E= -.15544653E+04 F= -.16274175E+04 E0= -.16274175E+04  EK= 0.11721E+02 SP= 0.61E+02 SK= 0.25E-02
       N       E                     dE             d eps       ncg     rms          rms(c)
DAV:   1    -0.160632951188E+04    0.29988E-01   -0.23074E-02  2248   0.165E+00    0.412E-01
DAV:   2    -0.160633444969E+04   -0.49378E-02   -0.51259E-02  1976   0.327E-01    0.202E-01
DAV:   3    -0.160633454409E+04   -0.94405E-04   -0.20163E-03  2600   0.947E-02    0.144E-01
DAV:   4    -0.160633452690E+04    0.17197E-04   -0.23054E-04  2144   0.288E-02    0.385E-02
DAV:   5    -0.160633452804E+04   -0.11458E-05   -0.30237E-05  1824   0.132E-02
     24 T=   272. E= -.15544649E+04 F= -.16273893E+04 E0= -.16273893E+04  EK= 0.11691E+02 SP= 0.61E+02 SK= 0.24E-02
       N       E                     dE             d eps       ncg     rms          rms(c)
DAV:   1    -0.160635563648E+04   -0.21110E-01   -0.18756E-02  2168   0.166E+00    0.391E-01
DAV:   2    -0.160636027926E+04   -0.46428E-02   -0.48136E-02  1968   0.321E-01    0.188E-01
DAV:   3    -0.160636037999E+04   -0.10073E-03   -0.19322E-03  2584   0.958E-02    0.136E-01
DAV:   4    -0.160636036313E+04    0.16865E-04   -0.19541E-04  2184   0.268E-02    0.358E-02
DAV:   5    -0.160636036478E+04   -0.16503E-05   -0.28320E-05  1744   0.128E-02
     25 T=   273. E= -.15544667E+04 F= -.16274115E+04 E0= -.16274115E+04  EK= 0.11709E+02 SP= 0.61E+02 SK= 0.22E-02
       N       E                     dE             d eps       ncg     rms          rms(c)
DAV:   1    -0.160641067855E+04   -0.50315E-01   -0.18673E-02  2208   0.167E+00    0.384E-01
DAV:   2    -0.160641530622E+04   -0.46277E-02   -0.47935E-02  1976   0.318E-01    0.184E-01
DAV:   3    -0.160641540859E+04   -0.10236E-03   -0.18654E-03  2528   0.933E-02    0.133E-01
DAV:   4    -0.160641539719E+04    0.11394E-04   -0.20143E-04  2216   0.269E-02    0.363E-02
DAV:   5    -0.160641539991E+04   -0.27234E-05   -0.27160E-05  1664   0.120E-02
     26 T=   274. E= -.15544694E+04 F= -.16274627E+04 E0= -.16274627E+04  EK= 0.11755E+02 SP= 0.61E+02 SK= 0.21E-02
       N       E                     dE             d eps       ncg     rms          rms(c)
DAV:   1    -0.160645561714E+04   -0.40220E-01   -0.18625E-02  2224   0.169E+00    0.394E-01
DAV:   2    -0.160646027422E+04   -0.46571E-02   -0.48318E-02  1960   0.321E-01    0.185E-01
DAV:   3    -0.160646036845E+04   -0.94225E-04   -0.18350E-03  2608   0.941E-02    0.133E-01
DAV:   4    -0.160646035513E+04    0.13319E-04   -0.18337E-04  2208   0.260E-02    0.367E-02
DAV:   5    -0.160646035861E+04   -0.34780E-05   -0.28171E-05  1752   0.121E-02
     27 T=   275. E= -.15544714E+04 F= -.16275034E+04 E0= -.16275034E+04  EK= 0.11792E+02 SP= 0.61E+02 SK= 0.20E-02
       N       E                     dE             d eps       ncg     rms          rms(c)
DAV:   1    -0.160645710002E+04    0.32551E-02   -0.17359E-02  2152   0.170E+00    0.389E-01
DAV:   2    -0.160646163812E+04   -0.45381E-02   -0.47168E-02  1912   0.324E-01    0.187E-01
DAV:   3    -0.160646173178E+04   -0.93667E-04   -0.18588E-03  2560   0.973E-02    0.135E-01
DAV:   4    -0.160646171695E+04    0.14830E-04   -0.20823E-04  2280   0.279E-02    0.358E-02
DAV:   5    -0.160646172013E+04   -0.31734E-05   -0.32280E-05  1744   0.126E-02
     28 T=   275. E= -.15544724E+04 F= -.16275002E+04 E0= -.16275002E+04  EK= 0.11786E+02 SP= 0.61E+02 SK= 0.19E-02
       N       E                     dE             d eps       ncg     rms          rms(c)
DAV:   1    -0.160640058960E+04    0.61127E-01   -0.16026E-02  2000   0.170E+00    0.379E-01
DAV:   2    -0.160640503415E+04   -0.44446E-02   -0.46177E-02  1912   0.322E-01    0.188E-01
DAV:   3    -0.160640512621E+04   -0.92061E-04   -0.18448E-03  2536   0.988E-02    0.138E-01
DAV:   4    -0.160640510582E+04    0.20395E-04   -0.21105E-04  2272   0.287E-02    0.353E-02
DAV:   5    -0.160640510901E+04   -0.31924E-05   -0.38764E-05  1736   0.133E-02
     29 T=   273. E= -.15544720E+04 F= -.16274386E+04 E0= -.16274386E+04  EK= 0.11722E+02 SP= 0.61E+02 SK= 0.18E-02
       N       E                     dE             d eps       ncg     rms          rms(c)
DAV:   1    -0.160629623038E+04    0.10888E+00   -0.18193E-02  2224   0.169E+00    0.381E-01
DAV:   2    -0.160630088933E+04   -0.46590E-02   -0.48457E-02  1896   0.324E-01    0.177E-01
DAV:   3    -0.160630098726E+04   -0.97935E-04   -0.19304E-03  2608   0.971E-02    0.129E-01
DAV:   4    -0.160630096466E+04    0.22603E-04   -0.19458E-04  2184   0.274E-02    0.365E-02
DAV:   5    -0.160630096763E+04   -0.29709E-05   -0.35101E-05  1856   0.127E-02
     30 T=   271. E= -.15544703E+04 F= -.16273292E+04 E0= -.16273292E+04  EK= 0.11612E+02 SP= 0.61E+02 SK= 0.17E-02
       N       E                     dE             d eps       ncg     rms          rms(c)
DAV:   1    -0.160617606439E+04    0.12490E+00   -0.17949E-02  2144   0.167E+00    0.375E-01
DAV:   2    -0.160618059094E+04   -0.45266E-02   -0.47119E-02  1920   0.321E-01    0.182E-01
DAV:   3    -0.160618067788E+04   -0.86937E-04   -0.18099E-03  2528   0.948E-02    0.134E-01
DAV:   4    -0.160618065447E+04    0.23405E-04   -0.20587E-04  2256   0.278E-02    0.389E-02
DAV:   5    -0.160618065692E+04   -0.24427E-05   -0.35054E-05  1848   0.125E-02
     31 T=   268. E= -.15544683E+04 F= -.16272033E+04 E0= -.16272033E+04  EK= 0.11487E+02 SP= 0.61E+02 SK= 0.16E-02
       N       E                     dE             d eps       ncg     rms          rms(c)
DAV:   1    -0.160607841840E+04    0.10224E+00   -0.17190E-02  2088   0.165E+00    0.369E-01
DAV:   2    -0.160608286165E+04   -0.44432E-02   -0.46231E-02  1928   0.320E-01    0.174E-01
DAV:   3    -0.160608295472E+04   -0.93078E-04   -0.18585E-03  2520   0.963E-02    0.128E-01
DAV:   4    -0.160608292999E+04    0.24735E-04   -0.18465E-04  2240   0.260E-02    0.378E-02
DAV:   5    -0.160608293196E+04   -0.19666E-05   -0.31970E-05  1800   0.123E-02
     32 T=   265. E= -.15544666E+04 F= -.16270996E+04 E0= -.16270996E+04  EK= 0.11383E+02 SP= 0.61E+02 SK= 0.15E-02
       N       E                     dE             d eps       ncg     rms          rms(c)
DAV:   1    -0.160603455442E+04    0.48376E-01   -0.17043E-02  2072   0.163E+00    0.366E-01
DAV:   2    -0.160603890258E+04   -0.43482E-02   -0.45306E-02  1976   0.314E-01    0.177E-01
DAV:   3    -0.160603900015E+04   -0.97570E-04   -0.18436E-03  2536   0.945E-02    0.131E-01
DAV:   4    -0.160603897666E+04    0.23487E-04   -0.17657E-04  2248   0.253E-02    0.371E-02
DAV:   5    -0.160603897841E+04   -0.17460E-05   -0.29946E-05  1752   0.122E-02
     33 T=   264. E= -.15544666E+04 F= -.16270495E+04 E0= -.16270495E+04  EK= 0.11331E+02 SP= 0.61E+02 SK= 0.13E-02
       N       E                     dE             d eps       ncg     rms          rms(c)
DAV:   1    -0.160605226113E+04   -0.13284E-01   -0.14586E-02  1952   0.162E+00    0.355E-01
DAV:   2    -0.160605631944E+04   -0.40583E-02   -0.42296E-02  1896   0.308E-01    0.175E-01
DAV:   3    -0.160605640735E+04   -0.87906E-04   -0.16940E-03  2600   0.943E-02    0.131E-01
DAV:   4    -0.160605638354E+04    0.23806E-04   -0.16110E-04  2168   0.243E-02    0.377E-02
DAV:   5    -0.160605638599E+04   -0.24449E-05   -0.30923E-05  1768   0.122E-02
     34 T=   264. E= -.15544685E+04 F= -.16270605E+04 E0= -.16270605E+04  EK= 0.11338E+02 SP= 0.61E+02 SK= 0.12E-02
       N       E                     dE             d eps       ncg     rms          rms(c)
DAV:   1    -0.160611031444E+04   -0.53931E-01   -0.14711E-02  1992   0.162E+00    0.360E-01
DAV:   2    -0.160611451049E+04   -0.41961E-02   -0.43681E-02  1936   0.309E-01    0.174E-01
DAV:   3    -0.160611460675E+04   -0.96255E-04   -0.17610E-03  2560   0.949E-02    0.130E-01
DAV:   4    -0.160611458413E+04    0.22614E-04   -0.17100E-04  2192   0.252E-02    0.373E-02
DAV:   5    -0.160611458701E+04   -0.28763E-05   -0.31895E-05  1760   0.125E-02
     35 T=   265. E= -.15544711E+04 F= -.16271122E+04 E0= -.16271122E+04  EK= 0.11386E+02 SP= 0.61E+02 SK= 0.10E-02
       N       E                     dE             d eps       ncg     rms          rms(c)
DAV:   1    -0.160617284769E+04   -0.58264E-01   -0.16317E-02  2104   0.163E+00    0.369E-01
DAV:   2    -0.160617726508E+04   -0.44174E-02   -0.45942E-02  1944   0.313E-01    0.178E-01
DAV:   3    -0.160617737250E+04   -0.10742E-03   -0.19100E-03  2616   0.966E-02    0.133E-01
DAV:   4    -0.160617735063E+04    0.21874E-04   -0.17585E-04  2176   0.255E-02    0.386E-02
DAV:   5    -0.160617735347E+04   -0.28412E-05   -0.31103E-05  1800   0.126E-02
     36 T=   267. E= -.15544736E+04 F= -.16271684E+04 E0= -.16271684E+04  EK= 0.11438E+02 SP= 0.61E+02 SK= 0.91E-03
       N       E                     dE             d eps       ncg     rms          rms(c)
DAV:   1    -0.160620804501E+04   -0.30694E-01   -0.16968E-02  1976   0.164E+00    0.377E-01
DAV:   2    -0.160621245533E+04   -0.44103E-02   -0.45855E-02  2008   0.316E-01    0.178E-01
DAV:   3    -0.160621254918E+04   -0.93853E-04   -0.18413E-03  2536   0.973E-02    0.132E-01
DAV:   4    -0.160621252673E+04    0.22455E-04   -0.18683E-04  2280   0.263E-02    0.383E-02
DAV:   5    -0.160621252950E+04   -0.27686E-05   -0.32069E-05  1752   0.125E-02
     37 T=   267. E= -.15544743E+04 F= -.16271970E+04 E0= -.16271970E+04  EK= 0.11465E+02 SP= 0.61E+02 SK= 0.81E-03
       N       E                     dE             d eps       ncg     rms          rms(c)
DAV:   1    -0.160620691529E+04    0.56114E-02   -0.18496E-02  2040   0.164E+00    0.388E-01
DAV:   2    -0.160621155339E+04   -0.46381E-02   -0.48188E-02  1960   0.323E-01    0.192E-01
DAV:   3    -0.160621165529E+04   -0.10189E-03   -0.20145E-03  2592   0.101E-01    0.142E-01
DAV:   4    -0.160621163144E+04    0.23848E-04   -0.21039E-04  2248   0.278E-02    0.395E-02
DAV:   5    -0.160621163337E+04   -0.19317E-05   -0.34223E-05  1784   0.131E-02
     38 T=   267. E= -.15544730E+04 F= -.16271896E+04 E0= -.16271896E+04  EK= 0.11457E+02 SP= 0.61E+02 SK= 0.71E-03
       N       E                     dE             d eps       ncg     rms          rms(c)
DAV:   1    -0.160618811107E+04    0.23520E-01   -0.18679E-02  2104   0.163E+00    0.385E-01
DAV:   2    -0.160619283848E+04   -0.47274E-02   -0.49122E-02  1928   0.323E-01    0.186E-01
DAV:   3    -0.160619294600E+04   -0.10752E-03   -0.20374E-03  2624   0.101E-01    0.140E-01
DAV:   4    -0.160619291904E+04    0.26964E-04   -0.20352E-04  2192   0.280E-02    0.394E-02
DAV:   5    -0.160619292061E+04   -0.15672E-05   -0.36816E-05  1824   0.133E-02
     39 T=   266. E= -.15544719E+04 F= -.16271645E+04 E0= -.16271645E+04  EK= 0.11432E+02 SP= 0.61E+02 SK= 0.62E-03
       N       E                     dE             d eps       ncg     rms          rms(c)
DAV:   1    -0.160617814904E+04    0.14770E-01   -0.18048E-02  2160   0.163E+00    0.388E-01
DAV:   2    -0.160618270825E+04   -0.45592E-02   -0.47405E-02  1896   0.318E-01    0.189E-01
DAV:   3    -0.160618281885E+04   -0.11060E-03   -0.20057E-03  2664   0.996E-02    0.142E-01
DAV:   4    -0.160618279565E+04    0.23205E-04   -0.20514E-04  2144   0.279E-02    0.377E-02
DAV:   5    -0.160618279682E+04   -0.11718E-05   -0.35876E-05  1872   0.133E-02
     40 T=   266. E= -.15544707E+04 F= -.16271480E+04 E0= -.16271480E+04  EK= 0.11415E+02 SP= 0.61E+02 SK= 0.53E-03
       N       E                     dE             d eps       ncg     rms          rms(c)
DAV:   1    -0.160620027637E+04   -0.17481E-01   -0.19420E-02  2208   0.164E+00    0.397E-01
DAV:   2    -0.160620489398E+04   -0.46176E-02   -0.48094E-02  1976   0.317E-01    0.183E-01
DAV:   3    -0.160620498232E+04   -0.88344E-04   -0.17941E-03  2544   0.902E-02    0.134E-01
DAV:   4    -0.160620496301E+04    0.19315E-04   -0.19481E-04  2176   0.268E-02    0.368E-02
DAV:   5    -0.160620496413E+04   -0.11199E-05   -0.29675E-05  1784   0.126E-02
     41 T=   266. E= -.15544707E+04 F= -.16271638E+04 E0= -.16271638E+04  EK= 0.11430E+02 SP= 0.61E+02 SK= 0.45E-03
       N       E                     dE             d eps       ncg     rms          rms(c)
DAV:   1    -0.160626554285E+04   -0.60580E-01   -0.22105E-02  2248   0.164E+00    0.402E-01
DAV:   2    -0.160627039297E+04   -0.48501E-02   -0.50493E-02  1952   0.323E-01    0.196E-01
DAV:   3    -0.160627047710E+04   -0.84129E-04   -0.18558E-03  2576   0.927E-02    0.142E-01
DAV:   4    -0.160627045798E+04    0.19118E-04   -0.20669E-04  2232   0.284E-02    0.396E-02
DAV:   5    -0.160627045869E+04   -0.71504E-06   -0.30746E-05  1768   0.136E-02
     42 T=   268. E= -.15544715E+04 F= -.16272229E+04 E0= -.16272229E+04  EK= 0.11487E+02 SP= 0.61E+02 SK= 0.38E-03
       N       E                     dE             d eps       ncg     rms          rms(c)
DAV:   1    -0.160637125425E+04   -0.10080E+00   -0.20603E-02  2208   0.166E+00    0.389E-01
DAV:   2    -0.160637608501E+04   -0.48308E-02   -0.50206E-02  1928   0.326E-01    0.194E-01
DAV:   3    -0.160637618288E+04   -0.97867E-04   -0.19673E-03  2624   0.972E-02    0.142E-01
DAV:   4    -0.160637616724E+04    0.15641E-04   -0.22636E-04  2248   0.291E-02    0.415E-02
DAV:   5    -0.160637616947E+04   -0.22307E-05   -0.31449E-05  1808   0.133E-02
     43 T=   270. E= -.15544723E+04 F= -.16273224E+04 E0= -.16273224E+04  EK= 0.11585E+02 SP= 0.61E+02 SK= 0.32E-03
       N       E                     dE             d eps       ncg     rms          rms(c)
DAV:   1    -0.160650080915E+04   -0.12464E+00   -0.19615E-02  2192   0.168E+00    0.401E-01
DAV:   2    -0.160650555487E+04   -0.47457E-02   -0.49144E-02  1920   0.325E-01    0.195E-01
DAV:   3    -0.160650567045E+04   -0.11558E-03   -0.20708E-03  2552   0.994E-02    0.142E-01
DAV:   4    -0.160650565968E+04    0.10771E-04   -0.21789E-04  2256   0.284E-02    0.360E-02
DAV:   5    -0.160650566172E+04   -0.20473E-05   -0.31831E-05  1712   0.136E-02
     44 T=   273. E= -.15544744E+04 F= -.16274458E+04 E0= -.16274458E+04  EK= 0.11706E+02 SP= 0.61E+02 SK= 0.27E-03
       N       E                     dE             d eps       ncg     rms          rms(c)
DAV:   1    -0.160662231316E+04   -0.11665E+00   -0.20005E-02  2168   0.168E+00    0.390E-01
DAV:   2    -0.160662723963E+04   -0.49265E-02   -0.50898E-02  1936   0.328E-01    0.187E-01
DAV:   3    -0.160662735919E+04   -0.11956E-03   -0.20840E-03  2552   0.976E-02    0.137E-01
DAV:   4    -0.160662734848E+04    0.10702E-04   -0.20744E-04  2192   0.268E-02    0.372E-02
DAV:   5    -0.160662735191E+04   -0.34256E-05   -0.28464E-05  1720   0.125E-02
     45 T=   275. E= -.15544764E+04 F= -.16275616E+04 E0= -.16275616E+04  EK= 0.11819E+02 SP= 0.61E+02 SK= 0.24E-03
       N       E                     dE             d eps       ncg     rms          rms(c)
DAV:   1    -0.160670469368E+04   -0.77345E-01   -0.19817E-02  2160   0.169E+00    0.390E-01
DAV:   2    -0.160670955949E+04   -0.48658E-02   -0.50317E-02  1912   0.328E-01    0.187E-01
DAV:   3    -0.160670968211E+04   -0.12262E-03   -0.21054E-03  2576   0.101E-01    0.138E-01
DAV:   4    -0.160670967060E+04    0.11512E-04   -0.19486E-04  2208   0.261E-02    0.392E-02
DAV:   5    -0.160670967460E+04   -0.39994E-05   -0.28797E-05  1760   0.122E-02
     46 T=   277. E= -.15544776E+04 F= -.16276381E+04 E0= -.16276381E+04  EK= 0.11893E+02 SP= 0.61E+02 SK= 0.21E-03
       N       E                     dE             d eps       ncg     rms          rms(c)
DAV:   1    -0.160673130870E+04   -0.21638E-01   -0.19074E-02  1968   0.170E+00    0.391E-01
DAV:   2    -0.160673612281E+04   -0.48141E-02   -0.49834E-02  2000   0.331E-01    0.185E-01
DAV:   3    -0.160673622585E+04   -0.10304E-03   -0.19475E-03  2520   0.971E-02    0.136E-01
DAV:   4    -0.160673621124E+04    0.14612E-04   -0.20005E-04  2280   0.267E-02    0.386E-02
DAV:   5    -0.160673621538E+04   -0.41387E-05   -0.31226E-05  1696   0.121E-02
     47 T=   278. E= -.15544775E+04 F= -.16276589E+04 E0= -.16276589E+04  EK= 0.11913E+02 SP= 0.61E+02 SK= 0.19E-03
       N       E                     dE             d eps       ncg     rms          rms(c)
DAV:   1    -0.160670893773E+04    0.27274E-01   -0.19797E-02  2096   0.168E+00    0.411E-01
DAV:   2    -0.160671383179E+04   -0.48941E-02   -0.50710E-02  1928   0.333E-01    0.207E-01
DAV:   3    -0.160671393998E+04   -0.10819E-03   -0.20104E-03  2568   0.993E-02    0.148E-01
DAV:   4    -0.160671392463E+04    0.15348E-04   -0.23063E-04  2264   0.295E-02    0.362E-02
DAV:   5    -0.160671392782E+04   -0.31922E-05   -0.38754E-05  1816   0.133E-02
     48 T=   277. E= -.15544757E+04 F= -.16276306E+04 E0= -.16276306E+04  EK= 0.11886E+02 SP= 0.61E+02 SK= 0.17E-03
       N       E                     dE             d eps       ncg     rms          rms(c)
DAV:   1    -0.160666895753E+04    0.44967E-01   -0.21994E-02  2176   0.167E+00    0.424E-01
DAV:   2    -0.160667401193E+04   -0.50544E-02   -0.52450E-02  1944   0.332E-01    0.196E-01
DAV:   3    -0.160667412357E+04   -0.11163E-03   -0.21182E-03  2592   0.101E-01    0.141E-01
DAV:   4    -0.160667410534E+04    0.18229E-04   -0.23123E-04  2280   0.294E-02    0.369E-02
DAV:   5    -0.160667410722E+04   -0.18813E-05   -0.36328E-05  1872   0.136E-02
     49 T=   276. E= -.15544730E+04 F= -.16275846E+04 E0= -.16275846E+04  EK= 0.11842E+02 SP= 0.61E+02 SK= 0.14E-03
       N       E                     dE             d eps       ncg     rms          rms(c)
DAV:   1    -0.160665325897E+04    0.20846E-01   -0.20815E-02  2304   0.165E+00    0.396E-01
DAV:   2    -0.160665806872E+04   -0.48097E-02   -0.49949E-02  1832   0.324E-01    0.189E-01
DAV:   3    -0.160665817610E+04   -0.10739E-03   -0.20226E-03  2696   0.984E-02    0.138E-01
DAV:   4    -0.160665815467E+04    0.21434E-04   -0.20494E-04  2232   0.280E-02    0.411E-02
DAV:   5    -0.160665815650E+04   -0.18310E-05   -0.33753E-05  1848   0.130E-02
     50 T=   275. E= -.15544710E+04 F= -.16275621E+04 E0= -.16275621E+04  EK= 0.11821E+02 SP= 0.61E+02 SK= 0.12E-03
       N       E                     dE             d eps       ncg     rms          rms(c)
DAV:   1    -0.160669287361E+04   -0.34719E-01   -0.19899E-02  2240   0.163E+00    0.388E-01
DAV:   2    -0.160669755733E+04   -0.46837E-02   -0.48681E-02  1920   0.319E-01    0.192E-01
DAV:   3    -0.160669766066E+04   -0.10332E-03   -0.19318E-03  2632   0.951E-02    0.139E-01
DAV:   4    -0.160669763998E+04    0.20673E-04   -0.19725E-04  2184   0.273E-02    0.387E-02
DAV:   5    -0.160669764177E+04   -0.17920E-05   -0.32596E-05  1824   0.130E-02
     51 T=   276. E= -.15544705E+04 F= -.16275946E+04 E0= -.16275946E+04  EK= 0.11854E+02 SP= 0.61E+02 SK= 0.99E-04
       N       E                     dE             d eps       ncg     rms          rms(c)
DAV:   1    -0.160679411111E+04   -0.96471E-01   -0.20574E-02  2240   0.162E+00    0.391E-01
DAV:   2    -0.160679888585E+04   -0.47747E-02   -0.49578E-02  1936   0.319E-01    0.191E-01
DAV:   3    -0.160679899183E+04   -0.10598E-03   -0.19284E-03  2616   0.927E-02    0.138E-01
DAV:   4    -0.160679897539E+04    0.16443E-04   -0.19386E-04  2168   0.267E-02    0.387E-02
DAV:   5    -0.160679897769E+04   -0.23059E-05   -0.29998E-05  1840   0.127E-02
     52 T=   278. E= -.15544714E+04 F= -.16276888E+04 E0= -.16276888E+04  EK= 0.11947E+02 SP= 0.61E+02 SK= 0.83E-04
       N       E                     dE             d eps       ncg     rms          rms(c)
DAV:   1    -0.160693708731E+04   -0.13811E+00   -0.19498E-02  2224   0.163E+00    0.395E-01
DAV:   2    -0.160694171244E+04   -0.46251E-02   -0.48112E-02  1912   0.319E-01    0.188E-01
DAV:   3    -0.160694182455E+04   -0.11211E-03   -0.19381E-03  2616   0.940E-02    0.136E-01
DAV:   4    -0.160694181069E+04    0.13861E-04   -0.19933E-04  2152   0.268E-02    0.342E-02
DAV:   5    -0.160694181327E+04   -0.25800E-05   -0.31163E-05  1840   0.128E-02
     53 T=   281. E= -.15544738E+04 F= -.16278246E+04 E0= -.16278246E+04  EK= 0.12080E+02 SP= 0.61E+02 SK= 0.72E-04
       N       E                     dE             d eps       ncg     rms          rms(c)
DAV:   1    -0.160708515294E+04   -0.14334E+00   -0.19368E-02  2264   0.164E+00    0.386E-01
DAV:   2    -0.160708987073E+04   -0.47178E-02   -0.49061E-02  1952   0.322E-01    0.184E-01
DAV:   3    -0.160708997555E+04   -0.10482E-03   -0.18839E-03  2568   0.913E-02    0.135E-01
DAV:   4    -0.160708995933E+04    0.16218E-04   -0.19172E-04  2160   0.265E-02    0.370E-02
DAV:   5    -0.160708996292E+04   -0.35896E-05   -0.30992E-05  1816   0.125E-02
     54 T=   285. E= -.15544761E+04 F= -.16279662E+04 E0= -.16279662E+04  EK= 0.12218E+02 SP= 0.61E+02 SK= 0.67E-04
       N       E                     dE             d eps       ncg     rms          rms(c)
DAV:   1    -0.160720479361E+04   -0.11483E+00   -0.21778E-02  2216   0.166E+00    0.401E-01
DAV:   2    -0.160720987854E+04   -0.50849E-02   -0.52773E-02  1904   0.329E-01    0.191E-01
DAV:   3    -0.160721001599E+04   -0.13745E-03   -0.22378E-03  2616   0.100E-01    0.140E-01
DAV:   4    -0.160721000066E+04    0.15329E-04   -0.20295E-04  2168   0.275E-02    0.392E-02
DAV:   5    -0.160721000404E+04   -0.33802E-05   -0.32351E-05  1776   0.130E-02
     55 T=   287. E= -.15544768E+04 F= -.16280805E+04 E0= -.16280805E+04  EK= 0.12332E+02 SP= 0.61E+02 SK= 0.66E-04
       N       E                     dE             d eps       ncg     rms          rms(c)
DAV:   1    -0.160728361327E+04   -0.73613E-01   -0.18882E-02  2176   0.168E+00    0.395E-01
DAV:   2    -0.160728845468E+04   -0.48414E-02   -0.50311E-02  1912   0.327E-01    0.190E-01
DAV:   3    -0.160728857000E+04   -0.11532E-03   -0.20750E-03  2648   0.990E-02    0.140E-01
DAV:   4    -0.160728855087E+04    0.19132E-04   -0.20845E-04  2216   0.282E-02    0.386E-02
DAV:   5    -0.160728855394E+04   -0.30685E-05   -0.35338E-05  1816   0.132E-02
     56 T=   289. E= -.15544767E+04 F= -.16281545E+04 E0= -.16281545E+04  EK= 0.12405E+02 SP= 0.61E+02 SK= 0.68E-04
       N       E                     dE             d eps       ncg     rms          rms(c)
DAV:   1    -0.160732567866E+04   -0.37128E-01   -0.17836E-02  2200   0.168E+00    0.385E-01
DAV:   2    -0.160733042598E+04   -0.47473E-02   -0.49383E-02  1896   0.325E-01    0.187E-01
DAV:   3    -0.160733053698E+04   -0.11100E-03   -0.20330E-03  2608   0.998E-02    0.139E-01
DAV:   4    -0.160733051547E+04    0.21506E-04   -0.20341E-04  2208   0.284E-02    0.397E-02
DAV:   5    -0.160733051765E+04   -0.21748E-05   -0.35986E-05  1856   0.132E-02
     57 T=   290. E= -.15544756E+04 F= -.16281934E+04 E0= -.16281934E+04  EK= 0.12445E+02 SP= 0.61E+02 SK= 0.73E-04
       N       E                     dE             d eps       ncg     rms          rms(c)
DAV:   1    -0.160734706124E+04   -0.16546E-01   -0.18433E-02  2176   0.169E+00    0.383E-01
DAV:   2    -0.160735187780E+04   -0.48166E-02   -0.50036E-02  1936   0.323E-01    0.192E-01
DAV:   3    -0.160735199459E+04   -0.11679E-03   -0.20883E-03  2592   0.998E-02    0.143E-01
DAV:   4    -0.160735197342E+04    0.21167E-04   -0.20475E-04  2208   0.283E-02    0.390E-02
DAV:   5    -0.160735197540E+04   -0.19816E-05   -0.35411E-05  1776   0.131E-02
     58 T=   290. E= -.15544741E+04 F= -.16282133E+04 E0= -.16282133E+04  EK= 0.12466E+02 SP= 0.61E+02 SK= 0.79E-04
       N       E                     dE             d eps       ncg     rms          rms(c)
DAV:   1    -0.160736723800E+04   -0.15265E-01   -0.18046E-02  2184   0.168E+00    0.392E-01
DAV:   2    -0.160737197689E+04   -0.47389E-02   -0.49200E-02  1888   0.321E-01    0.186E-01
DAV:   3    -0.160737210306E+04   -0.12617E-03   -0.21082E-03  2624   0.100E-01    0.136E-01
DAV:   4    -0.160737208670E+04    0.16367E-04   -0.19991E-04  2144   0.273E-02    0.368E-02
DAV:   5    -0.160737208835E+04   -0.16479E-05   -0.31330E-05  1840   0.125E-02
     59 T=   291. E= -.15544733E+04 F= -.16282333E+04 E0= -.16282333E+04  EK= 0.12486E+02 SP= 0.61E+02 SK= 0.85E-04
       N       E                     dE             d eps       ncg     rms          rms(c)
DAV:   1    -0.160740066950E+04   -0.28583E-01   -0.17984E-02  2168   0.168E+00    0.387E-01
DAV:   2    -0.160740525850E+04   -0.45890E-02   -0.47661E-02  1976   0.319E-01    0.186E-01
DAV:   3    -0.160740535774E+04   -0.99241E-04   -0.18598E-03  2544   0.940E-02    0.137E-01
DAV:   4    -0.160740534300E+04    0.14740E-04   -0.19586E-04  2272   0.265E-02    0.371E-02
DAV:   5    -0.160740534505E+04   -0.20562E-05   -0.29075E-05  1744   0.122E-02
     60 T=   292. E= -.15544729E+04 F= -.16282676E+04 E0= -.16282676E+04  EK= 0.12520E+02 SP= 0.61E+02 SK= 0.93E-04
       N       E                     dE             d eps       ncg     rms          rms(c)
DAV:   1    -0.160745632391E+04   -0.50981E-01   -0.19259E-02  2184   0.169E+00    0.394E-01
DAV:   2    -0.160746107105E+04   -0.47471E-02   -0.49229E-02  1952   0.324E-01    0.191E-01
DAV:   3    -0.160746118768E+04   -0.11663E-03   -0.20510E-03  2624   0.974E-02    0.139E-01
DAV:   4    -0.160746117340E+04    0.14277E-04   -0.17898E-04  2160   0.256E-02    0.388E-02
DAV:   5    -0.160746117535E+04   -0.19454E-05   -0.27078E-05  1744   0.125E-02
     61 T=   293. E= -.15544736E+04 F= -.16283253E+04 E0= -.16283253E+04  EK= 0.12577E+02 SP= 0.61E+02 SK= 0.10E-03
       N       E                     dE             d eps       ncg     rms          rms(c)
DAV:   1    -0.160753197786E+04   -0.70804E-01   -0.17316E-02  2088   0.170E+00    0.386E-01
DAV:   2    -0.160753659137E+04   -0.46135E-02   -0.47763E-02  1904   0.323E-01    0.188E-01
DAV:   3    -0.160753670425E+04   -0.11288E-03   -0.19827E-03  2608   0.971E-02    0.138E-01
DAV:   4    -0.160753669163E+04    0.12615E-04   -0.18626E-04  2224   0.260E-02    0.392E-02
DAV:   5    -0.160753669400E+04   -0.23670E-05   -0.27707E-05  1768   0.126E-02
     62 T=   295. E= -.15544755E+04 F= -.16284033E+04 E0= -.16284033E+04  EK= 0.12652E+02 SP= 0.61E+02 SK= 0.12E-03
       N       E                     dE             d eps       ncg     rms          rms(c)
DAV:   1    -0.160760400710E+04   -0.67315E-01   -0.16040E-02  2136   0.171E+00    0.375E-01
DAV:   2    -0.160760858167E+04   -0.45746E-02   -0.47246E-02  1920   0.321E-01    0.192E-01
DAV:   3    -0.160760868574E+04   -0.10406E-03   -0.19077E-03  2656   0.968E-02    0.143E-01
DAV:   4    -0.160760867135E+04    0.14383E-04   -0.19185E-04  2224   0.264E-02    0.392E-02
DAV:   5    -0.160760867446E+04   -0.31058E-05   -0.30962E-05  1744   0.130E-02
     63 T=   296. E= -.15544778E+04 F= -.16284778E+04 E0= -.16284778E+04  EK= 0.12724E+02 SP= 0.61E+02 SK= 0.13E-03
       N       E                     dE             d eps       ncg     rms          rms(c)
DAV:   1    -0.160763893719E+04   -0.30266E-01   -0.17790E-02  2216   0.173E+00    0.396E-01
DAV:   2    -0.160764378578E+04   -0.48486E-02   -0.50099E-02  1944   0.326E-01    0.196E-01
DAV:   3    -0.160764389457E+04   -0.10879E-03   -0.19614E-03  2576   0.949E-02    0.145E-01
DAV:   4    -0.160764388441E+04    0.10155E-04   -0.21424E-04  2216   0.278E-02    0.373E-02
DAV:   5    -0.160764388785E+04   -0.34423E-05   -0.32771E-05  1792   0.130E-02
     64 T=   297. E= -.15544799E+04 F= -.16285154E+04 E0= -.16285154E+04  EK= 0.12759E+02 SP= 0.61E+02 SK= 0.16E-03
       N       E                     dE             d eps       ncg     rms          rms(c)
DAV:   1    -0.160760910639E+04    0.34778E-01   -0.18325E-02  2120   0.173E+00    0.410E-01
DAV:   2    -0.160761388092E+04   -0.47745E-02   -0.49421E-02  1928   0.327E-01    0.197E-01
DAV:   3    -0.160761398982E+04   -0.10890E-03   -0.19865E-03  2592   0.981E-02    0.144E-01
DAV:   4    -0.160761397750E+04    0.12325E-04   -0.20132E-04  2200   0.270E-02    0.373E-02
DAV:   5    -0.160761398145E+04   -0.39497E-05   -0.32981E-05  1872   0.125E-02
     65 T=   297. E= -.15544799E+04 F= -.16284875E+04 E0= -.16284875E+04  EK= 0.12730E+02 SP= 0.61E+02 SK= 0.18E-03
       N       E                     dE             d eps       ncg     rms          rms(c)
DAV:   1    -0.160751029224E+04    0.10369E+00   -0.19858E-02  2136   0.173E+00    0.405E-01
DAV:   2    -0.160751519161E+04   -0.48994E-02   -0.50754E-02  1896   0.328E-01    0.189E-01
DAV:   3    -0.160751530233E+04   -0.11071E-03   -0.20063E-03  2600   0.960E-02    0.138E-01
DAV:   4    -0.160751528806E+04    0.14267E-04   -0.19390E-04  2128   0.264E-02    0.372E-02
DAV:   5    -0.160751529209E+04   -0.40319E-05   -0.32934E-05  1864   0.122E-02
     66 T=   294. E= -.15544783E+04 F= -.16283903E+04 E0= -.16283903E+04  EK= 0.12634E+02 SP= 0.61E+02 SK= 0.20E-03
       N       E                     dE             d eps       ncg     rms          rms(c)
DAV:   1    -0.160736713319E+04    0.14815E+00   -0.24254E-02  2272   0.171E+00    0.422E-01
DAV:   2    -0.160737245035E+04   -0.53172E-02   -0.55037E-02  1944   0.334E-01    0.196E-01
DAV:   3    -0.160737257980E+04   -0.12944E-03   -0.22916E-03  2608   0.101E-01    0.141E-01
DAV:   4    -0.160737256294E+04    0.16856E-04   -0.21818E-04  2224   0.283E-02    0.385E-02
DAV:   5    -0.160737256573E+04   -0.27837E-05   -0.33364E-05  1888   0.128E-02
     67 T=   291. E= -.15544754E+04 F= -.16282484E+04 E0= -.16282484E+04  EK= 0.12494E+02 SP= 0.61E+02 SK= 0.22E-03
       N       E                     dE             d eps       ncg     rms          rms(c)
DAV:   1    -0.160722575718E+04    0.14681E+00   -0.21457E-02  2304   0.169E+00    0.405E-01
DAV:   2    -0.160723072720E+04   -0.49700E-02   -0.51471E-02  1888   0.328E-01    0.192E-01
DAV:   3    -0.160723083106E+04   -0.10387E-03   -0.20141E-03  2608   0.951E-02    0.139E-01
DAV:   4    -0.160723081239E+04    0.18673E-04   -0.22659E-04  2136   0.286E-02    0.382E-02
DAV:   5    -0.160723081444E+04   -0.20572E-05   -0.33612E-05  1856   0.128E-02
     68 T=   288. E= -.15544727E+04 F= -.16281069E+04 E0= -.16281069E+04  EK= 0.12355E+02 SP= 0.61E+02 SK= 0.23E-03
       N       E                     dE             d eps       ncg     rms          rms(c)
DAV:   1    -0.160712716814E+04    0.10364E+00   -0.19047E-02  2280   0.167E+00    0.403E-01
DAV:   2    -0.160713186613E+04   -0.46980E-02   -0.48552E-02  1928   0.320E-01    0.193E-01
DAV:   3    -0.160713196449E+04   -0.98357E-04   -0.19175E-03  2576   0.930E-02    0.135E-01
DAV:   4    -0.160713194738E+04    0.17109E-04   -0.19387E-04  2176   0.264E-02    0.371E-02
DAV:   5    -0.160713194932E+04   -0.19373E-05   -0.30671E-05  1824   0.124E-02
     69 T=   286. E= -.15544713E+04 F= -.16280078E+04 E0= -.16280078E+04  EK= 0.12256E+02 SP= 0.61E+02 SK= 0.23E-03
       N       E                     dE             d eps       ncg     rms          rms(c)
DAV:   1    -0.160708881176E+04    0.43136E-01   -0.21786E-02  2384   0.165E+00    0.409E-01
DAV:   2    -0.160709368020E+04   -0.48684E-02   -0.50361E-02  1912   0.321E-01    0.194E-01
DAV:   3    -0.160709380177E+04   -0.12157E-03   -0.20880E-03  2624   0.948E-02    0.139E-01
DAV:   4    -0.160709378752E+04    0.14251E-04   -0.18903E-04  2208   0.266E-02    0.371E-02
DAV:   5    -0.160709378912E+04   -0.15991E-05   -0.29192E-05  1816   0.128E-02
     70 T=   285. E= -.15544723E+04 F= -.16279691E+04 E0= -.16279691E+04  EK= 0.12216E+02 SP= 0.61E+02 SK= 0.22E-03
       N       E                     dE             d eps       ncg     rms          rms(c)
DAV:   1    -0.160709448979E+04   -0.70227E-03   -0.20503E-02  2416   0.166E+00    0.387E-01
DAV:   2    -0.160709923410E+04   -0.47443E-02   -0.49138E-02  1896   0.317E-01    0.186E-01
DAV:   3    -0.160709933450E+04   -0.10040E-03   -0.18358E-03  2632   0.887E-02    0.136E-01
DAV:   4    -0.160709931921E+04    0.15293E-04   -0.18169E-04  2160   0.263E-02    0.397E-02
DAV:   5    -0.160709932176E+04   -0.25590E-05   -0.27580E-05  1808   0.124E-02
     71 T=   285. E= -.15544757E+04 F= -.16279740E+04 E0= -.16279740E+04  EK= 0.12216E+02 SP= 0.61E+02 SK= 0.22E-03
       N       E                     dE             d eps       ncg     rms          rms(c)
DAV:   1    -0.160709716603E+04    0.21532E-02   -0.19566E-02  2320   0.166E+00    0.386E-01
DAV:   2    -0.160710184395E+04   -0.46779E-02   -0.48561E-02  1960   0.317E-01    0.177E-01
DAV:   3    -0.160710194679E+04   -0.10284E-03   -0.17883E-03  2512   0.885E-02    0.129E-01
DAV:   4    -0.160710193840E+04    0.83859E-05   -0.21250E-04  2256   0.270E-02    0.374E-02
DAV:   5    -0.160710194224E+04   -0.38336E-05   -0.27337E-05  1776   0.116E-02
     72 T=   285. E= -.15544785E+04 F= -.16279762E+04 E0= -.16279762E+04  EK= 0.12215E+02 SP= 0.61E+02 SK= 0.21E-03
       N       E                     dE             d eps       ncg     rms          rms(c)
DAV:   1    -0.160705250755E+04    0.49431E-01   -0.20786E-02  2344   0.168E+00    0.397E-01
DAV:   2    -0.160705738468E+04   -0.48771E-02   -0.50562E-02  1928   0.322E-01    0.187E-01
DAV:   3    -0.160705749576E+04   -0.11107E-03   -0.19783E-03  2544   0.926E-02    0.135E-01
DAV:   4    -0.160705748412E+04    0.11638E-04   -0.21272E-04  2208   0.273E-02    0.397E-02
DAV:   5    -0.160705748775E+04   -0.36273E-05   -0.28343E-05  1800   0.121E-02
     73 T=   284. E= -.15544808E+04 F= -.16279319E+04 E0= -.16279319E+04  EK= 0.12168E+02 SP= 0.61E+02 SK= 0.21E-03
       N       E                     dE             d eps       ncg     rms          rms(c)
DAV:   1    -0.160693818649E+04    0.11930E+00   -0.21445E-02  2368   0.169E+00    0.396E-01
DAV:   2    -0.160694314079E+04   -0.49543E-02   -0.51369E-02  1864   0.326E-01    0.185E-01
DAV:   3    -0.160694324854E+04   -0.10775E-03   -0.20026E-03  2560   0.936E-02    0.136E-01
DAV:   4    -0.160694323249E+04    0.16048E-04   -0.20980E-04  2152   0.276E-02    0.409E-02
DAV:   5    -0.160694323552E+04   -0.30286E-05   -0.29748E-05  1816   0.125E-02
     74 T=   281. E= -.15544801E+04 F= -.16278187E+04 E0= -.16278187E+04  EK= 0.12054E+02 SP= 0.61E+02 SK= 0.20E-03
       N       E                     dE             d eps       ncg     rms          rms(c)
DAV:   1    -0.160676884599E+04    0.17439E+00   -0.19375E-02  2208   0.168E+00    0.391E-01
DAV:   2    -0.160677370370E+04   -0.48577E-02   -0.50357E-02  1920   0.326E-01    0.192E-01
DAV:   3    -0.160677381032E+04   -0.10663E-03   -0.20620E-03  2608   0.981E-02    0.142E-01
DAV:   4    -0.160677378826E+04    0.22064E-04   -0.21576E-04  2144   0.279E-02    0.395E-02
DAV:   5    -0.160677379065E+04   -0.23865E-05   -0.34326E-05  1816   0.130E-02
     75 T=   277. E= -.15544783E+04 F= -.16276515E+04 E0= -.16276515E+04  EK= 0.11888E+02 SP= 0.61E+02 SK= 0.18E-03
       N       E                     dE             d eps       ncg     rms          rms(c)
DAV:   1    -0.160658151495E+04    0.19227E+00   -0.19570E-02  2216   0.166E+00    0.384E-01
DAV:   2    -0.160658636083E+04   -0.48459E-02   -0.50325E-02  1912   0.323E-01    0.194E-01
DAV:   3    -0.160658646003E+04   -0.99201E-04   -0.19685E-03  2568   0.961E-02    0.144E-01
DAV:   4    -0.160658643666E+04    0.23367E-04   -0.21981E-04  2240   0.285E-02    0.417E-02
DAV:   5    -0.160658643798E+04   -0.13152E-05   -0.33420E-05  1832   0.126E-02
     76 T=   273. E= -.15544767E+04 F= -.16274678E+04 E0= -.16274678E+04  EK= 0.11706E+02 SP= 0.61E+02 SK= 0.15E-03
       N       E                     dE             d eps       ncg     rms          rms(c)
DAV:   1    -0.160641593171E+04    0.17050E+00   -0.19213E-02  2264   0.164E+00    0.378E-01
DAV:   2    -0.160642059735E+04   -0.46656E-02   -0.48567E-02  1928   0.317E-01    0.189E-01
DAV:   3    -0.160642070294E+04   -0.10559E-03   -0.19594E-03  2584   0.939E-02    0.140E-01
DAV:   4    -0.160642067903E+04    0.23913E-04   -0.19219E-04  2240   0.271E-02    0.407E-02
DAV:   5    -0.160642067971E+04   -0.68821E-06   -0.31308E-05  1784   0.122E-02
     77 T=   269. E= -.15544760E+04 F= -.16273070E+04 E0= -.16273070E+04  EK= 0.11545E+02 SP= 0.61E+02 SK= 0.12E-03
       N       E                     dE             d eps       ncg     rms          rms(c)
DAV:   1    -0.160629534401E+04    0.12534E+00   -0.17935E-02  2224   0.163E+00    0.378E-01
DAV:   2    -0.160629971338E+04   -0.43694E-02   -0.45497E-02  1944   0.309E-01    0.175E-01
DAV:   3    -0.160629980929E+04   -0.95909E-04   -0.17646E-03  2544   0.914E-02    0.128E-01
DAV:   4    -0.160629979040E+04    0.18891E-04   -0.17852E-04  2272   0.256E-02    0.392E-02
DAV:   5    -0.160629979142E+04   -0.10220E-05   -0.27139E-05  1744   0.113E-02
     78 T=   266. E= -.15544760E+04 F= -.16271922E+04 E0= -.16271922E+04  EK= 0.11430E+02 SP= 0.61E+02 SK= 0.83E-04
       N       E                     dE             d eps       ncg     rms          rms(c)
DAV:   1    -0.160622532396E+04    0.74466E-01   -0.18633E-02  2272   0.162E+00    0.388E-01
DAV:   2    -0.160622972712E+04   -0.44032E-02   -0.45848E-02  1968   0.310E-01    0.178E-01
DAV:   3    -0.160622981997E+04   -0.92849E-04   -0.17785E-03  2536   0.894E-02    0.130E-01
DAV:   4    -0.160622980219E+04    0.17784E-04   -0.17317E-04  2232   0.253E-02    0.371E-02
DAV:   5    -0.160622980304E+04   -0.85677E-06   -0.25563E-05  1704   0.117E-02
     79 T=   265. E= -.15544769E+04 F= -.16271290E+04 E0= -.16271290E+04  EK= 0.11365E+02 SP= 0.61E+02 SK= 0.52E-04
       N       E                     dE             d eps       ncg     rms          rms(c)
DAV:   1    -0.160620106824E+04    0.28734E-01   -0.19538E-02  2280   0.161E+00    0.386E-01
DAV:   2    -0.160620555045E+04   -0.44822E-02   -0.46619E-02  1864   0.315E-01    0.180E-01
DAV:   3    -0.160620565818E+04   -0.10773E-03   -0.19975E-03  2632   0.962E-02    0.132E-01
DAV:   4    -0.160620564100E+04    0.17178E-04   -0.18811E-04  2168   0.259E-02    0.394E-02
DAV:   5    -0.160620564222E+04   -0.12186E-05   -0.25870E-05  1696   0.121E-02
     80 T=   264. E= -.15544779E+04 F= -.16271118E+04 E0= -.16271118E+04  EK= 0.11347E+02 SP= 0.61E+02 SK= 0.27E-04
       N       E                     dE             d eps       ncg     rms          rms(c)
DAV:   1    -0.160621167297E+04   -0.60320E-02   -0.17280E-02  2128   0.162E+00    0.381E-01
DAV:   2    -0.160621604167E+04   -0.43687E-02   -0.45279E-02  1960   0.313E-01    0.188E-01
DAV:   3    -0.160621613872E+04   -0.97049E-04   -0.18790E-03  2576   0.945E-02    0.138E-01
DAV:   4    -0.160621612183E+04    0.16886E-04   -0.18874E-04  2192   0.260E-02    0.383E-02
DAV:   5    -0.160621612379E+04   -0.19624E-05   -0.28014E-05  1728   0.124E-02
     81 T=   265. E= -.15544795E+04 F= -.16271290E+04 E0= -.16271290E+04  EK= 0.11362E+02 SP= 0.61E+02 SK= 0.10E-04
       N       E                     dE             d eps       ncg     rms          rms(c)
DAV:   1    -0.160623237523E+04   -0.16253E-01   -0.16150E-02  2120   0.164E+00    0.374E-01
DAV:   2    -0.160623679636E+04   -0.44211E-02   -0.45683E-02  1920   0.312E-01    0.188E-01
DAV:   3    -0.160623690148E+04   -0.10513E-03   -0.19178E-03  2640   0.960E-02    0.141E-01
DAV:   4    -0.160623688218E+04    0.19302E-04   -0.17240E-04  2160   0.249E-02    0.380E-02
DAV:   5    -0.160623688461E+04   -0.24261E-05   -0.28957E-05  1736   0.122E-02
     82 T=   265. E= -.15544821E+04 F= -.16271559E+04 E0= -.16271559E+04  EK= 0.11386E+02 SP= 0.61E+02 SK= 0.17E-05
       N       E                     dE             d eps       ncg     rms          rms(c)
DAV:   1    -0.160622604738E+04    0.10835E-01   -0.17223E-02  2176   0.166E+00    0.376E-01
DAV:   2    -0.160623064627E+04   -0.45989E-02   -0.47519E-02  1928   0.314E-01    0.194E-01
DAV:   3    -0.160623075990E+04   -0.11364E-03   -0.19603E-03  2592   0.946E-02    0.145E-01
DAV:   4    -0.160623074307E+04    0.16831E-04   -0.17814E-04  2144   0.250E-02    0.393E-02
DAV:   5    -0.160623074600E+04   -0.29279E-05   -0.29227E-05  1744   0.119E-02
     83 T=   265. E= -.15544847E+04 F= -.16271548E+04 E0= -.16271548E+04  EK= 0.11383E+02 SP= 0.61E+02 SK= 0.36E-06
       N       E                     dE             d eps       ncg     rms          rms(c)
DAV:   1    -0.160615989823E+04    0.70845E-01   -0.16949E-02  2096   0.167E+00    0.385E-01
DAV:   2    -0.160616443305E+04   -0.45348E-02   -0.46995E-02  2000   0.317E-01    0.183E-01
DAV:   3    -0.160616454577E+04   -0.11272E-03   -0.19741E-03  2528   0.984E-02    0.136E-01
DAV:   4    -0.160616452952E+04    0.16253E-04   -0.18560E-04  2240   0.251E-02    0.385E-02
DAV:   5    -0.160616453252E+04   -0.30009E-05   -0.28597E-05  1720   0.118E-02
     84 T=   264. E= -.15544854E+04 F= -.16270925E+04 E0= -.16270925E+04  EK= 0.11320E+02 SP= 0.61E+02 SK= 0.65E-05
       N       E                     dE             d eps       ncg     rms          rms(c)
DAV:   1    -0.160602913867E+04    0.13539E+00   -0.19458E-02  2104   0.168E+00    0.394E-01
DAV:   2    -0.160603378395E+04   -0.46453E-02   -0.48279E-02  1960   0.323E-01    0.182E-01
DAV:   3    -0.160603389362E+04   -0.10967E-03   -0.20086E-03  2576   0.989E-02    0.134E-01
DAV:   4    -0.160603387457E+04    0.19045E-04   -0.18914E-04  2208   0.257E-02    0.398E-02
DAV:   5    -0.160603387741E+04   -0.28358E-05   -0.29350E-05  1776   0.116E-02
     85 T=   261. E= -.15544833E+04 F= -.16269648E+04 E0= -.16269648E+04  EK= 0.11194E+02 SP= 0.61E+02 SK= 0.22E-04
       N       E                     dE             d eps       ncg     rms          rms(c)
DAV:   1    -0.160586883679E+04    0.16504E+00   -0.22800E-02  2168   0.166E+00    0.418E-01
DAV:   2    -0.160587374709E+04   -0.49103E-02   -0.51032E-02  2000   0.329E-01    0.190E-01
DAV:   3    -0.160587383780E+04   -0.90710E-04   -0.19181E-03  2536   0.931E-02    0.136E-01
DAV:   4    -0.160587382026E+04    0.17537E-04   -0.21795E-04  2216   0.277E-02    0.367E-02
DAV:   5    -0.160587382224E+04   -0.19747E-05   -0.30845E-05  1824   0.118E-02
     86 T=   257. E= -.15544794E+04 F= -.16268070E+04 E0= -.16268070E+04  EK= 0.11041E+02 SP= 0.61E+02 SK= 0.52E-04
       N       E                     dE             d eps       ncg     rms          rms(c)
DAV:   1    -0.160573964754E+04    0.13417E+00   -0.21590E-02  2208   0.163E+00    0.405E-01
DAV:   2    -0.160574441113E+04   -0.47636E-02   -0.49383E-02  1952   0.324E-01    0.193E-01
DAV:   3    -0.160574449850E+04   -0.87372E-04   -0.19103E-03  2560   0.943E-02    0.138E-01
DAV:   4    -0.160574447555E+04    0.22950E-04   -0.20578E-04  2168   0.269E-02    0.373E-02
DAV:   5    -0.160574447714E+04   -0.15847E-05   -0.31410E-05  1808   0.120E-02
     87 T=   254. E= -.15544761E+04 F= -.16266797E+04 E0= -.16266797E+04  EK= 0.10917E+02 SP= 0.61E+02 SK= 0.99E-04
       N       E                     dE             d eps       ncg     rms          rms(c)
DAV:   1    -0.160569103433E+04    0.53441E-01   -0.19829E-02  2248   0.159E+00    0.395E-01
DAV:   2    -0.160569566534E+04   -0.46310E-02   -0.47992E-02  1936   0.315E-01    0.193E-01
DAV:   3    -0.160569575336E+04   -0.88015E-04   -0.18766E-03  2592   0.941E-02    0.137E-01
DAV:   4    -0.160569573232E+04    0.21040E-04   -0.19624E-04  2208   0.264E-02    0.383E-02
DAV:   5    -0.160569573325E+04   -0.93457E-06   -0.28366E-05  1784   0.123E-02
     88 T=   253. E= -.15544754E+04 F= -.16266331E+04 E0= -.16266331E+04  EK= 0.10872E+02 SP= 0.61E+02 SK= 0.17E-03
       N       E                     dE             d eps       ncg     rms          rms(c)
DAV:   1    -0.160572990129E+04   -0.34169E-01   -0.18376E-02  2248   0.159E+00    0.373E-01
DAV:   2    -0.160573441194E+04   -0.45107E-02   -0.46768E-02  1968   0.311E-01    0.189E-01
DAV:   3    -0.160573449150E+04   -0.79557E-04   -0.17387E-03  2560   0.898E-02    0.136E-01
DAV:   4    -0.160573447268E+04    0.18821E-04   -0.19761E-04  2232   0.269E-02    0.411E-02
DAV:   5    -0.160573447408E+04   -0.14043E-05   -0.26699E-05  1800   0.121E-02
     89 T=   254. E= -.15544781E+04 F= -.16266744E+04 E0= -.16266744E+04  EK= 0.10911E+02 SP= 0.61E+02 SK= 0.25E-03
       N       E                     dE             d eps       ncg     rms          rms(c)
DAV:   1    -0.160581653358E+04   -0.82061E-01   -0.16698E-02  2240   0.160E+00    0.373E-01
DAV:   2    -0.160582080903E+04   -0.42754E-02   -0.44386E-02  1888   0.308E-01    0.179E-01
DAV:   3    -0.160582091781E+04   -0.10878E-03   -0.19036E-03  2664   0.966E-02    0.132E-01
DAV:   4    -0.160582090110E+04    0.16710E-04   -0.16829E-04  2160   0.250E-02    0.380E-02
DAV:   5    -0.160582090318E+04   -0.20806E-05   -0.26727E-05  1800   0.122E-02
     90 T=   256. E= -.15544824E+04 F= -.16267641E+04 E0= -.16267641E+04  EK= 0.10997E+02 SP= 0.61E+02 SK= 0.35E-03
       N       E                     dE             d eps       ncg     rms          rms(c)
DAV:   1    -0.160589135371E+04   -0.70453E-01   -0.17033E-02  2032   0.161E+00    0.382E-01
DAV:   2    -0.160589564117E+04   -0.42875E-02   -0.44667E-02  2008   0.311E-01    0.176E-01
DAV:   3    -0.160589575091E+04   -0.10974E-03   -0.18744E-03  2536   0.976E-02    0.128E-01
DAV:   4    -0.160589573513E+04    0.15782E-04   -0.17246E-04  2240   0.251E-02    0.357E-02
DAV:   5    -0.160589573800E+04   -0.28759E-05   -0.28247E-05  1664   0.122E-02
     91 T=   258. E= -.15544851E+04 F= -.16268429E+04 E0= -.16268429E+04  EK= 0.11074E+02 SP= 0.61E+02 SK= 0.46E-03
       N       E                     dE             d eps       ncg     rms          rms(c)
DAV:   1    -0.160591449932E+04   -0.18764E-01   -0.19662E-02  2184   0.162E+00    0.409E-01
DAV:   2    -0.160591912033E+04   -0.46210E-02   -0.48199E-02  1992   0.320E-01    0.175E-01
DAV:   3    -0.160591922736E+04   -0.10703E-03   -0.19400E-03  2552   0.953E-02    0.125E-01
DAV:   4    -0.160591921403E+04    0.13326E-04   -0.20067E-04  2224   0.265E-02    0.353E-02
DAV:   5    -0.160591921712E+04   -0.30842E-05   -0.28361E-05  1720   0.122E-02
     92 T=   259. E= -.15544852E+04 F= -.16268715E+04 E0= -.16268715E+04  EK= 0.11104E+02 SP= 0.61E+02 SK= 0.57E-03
       N       E                     dE             d eps       ncg     rms          rms(c)
DAV:   1    -0.160588558805E+04    0.33626E-01   -0.18618E-02  2120   0.162E+00    0.393E-01
DAV:   2    -0.160589015680E+04   -0.45687E-02   -0.47553E-02  1968   0.321E-01    0.183E-01
DAV:   3    -0.160589025504E+04   -0.98240E-04   -0.18979E-03  2576   0.958E-02    0.134E-01
DAV:   4    -0.160589023495E+04    0.20091E-04   -0.19555E-04  2208   0.270E-02    0.369E-02
DAV:   5    -0.160589023726E+04   -0.23127E-05   -0.31610E-05  1776   0.130E-02
     93 T=   258. E= -.15544833E+04 F= -.16268487E+04 E0= -.16268487E+04  EK= 0.11084E+02 SP= 0.61E+02 SK= 0.69E-03
       N       E                     dE             d eps       ncg     rms          rms(c)
DAV:   1    -0.160583508914E+04    0.55146E-01   -0.19022E-02  2168   0.162E+00    0.388E-01
DAV:   2    -0.160583978493E+04   -0.46958E-02   -0.48793E-02  1920   0.322E-01    0.197E-01
DAV:   3    -0.160583990004E+04   -0.11511E-03   -0.20861E-03  2656   0.102E-01    0.144E-01
DAV:   4    -0.160583987690E+04    0.23140E-04   -0.20738E-04  2216   0.282E-02    0.397E-02
DAV:   5    -0.160583987845E+04   -0.15507E-05   -0.34272E-05  1824   0.134E-02
     94 T=   257. E= -.15544810E+04 F= -.16268057E+04 E0= -.16268057E+04  EK= 0.11045E+02 SP= 0.61E+02 SK= 0.84E-03
       N       E                     dE             d eps       ncg     rms          rms(c)
DAV:   1    -0.160580312042E+04    0.36756E-01   -0.17281E-02  2264   0.161E+00    0.378E-01
DAV:   2    -0.160580759221E+04   -0.44718E-02   -0.46553E-02  1896   0.315E-01    0.194E-01
DAV:   3    -0.160580768976E+04   -0.97551E-04   -0.19069E-03  2664   0.971E-02    0.142E-01
DAV:   4    -0.160580766579E+04    0.23965E-04   -0.19913E-04  2192   0.280E-02    0.373E-02
DAV:   5    -0.160580766683E+04   -0.10324E-05   -0.34104E-05  1864   0.134E-02
     95 T=   257. E= -.15544800E+04 F= -.16267820E+04 E0= -.16267820E+04  EK= 0.11023E+02 SP= 0.61E+02 SK= 0.10E-02
       N       E                     dE             d eps       ncg     rms          rms(c)
DAV:   1    -0.160580935122E+04   -0.16854E-02   -0.17340E-02  2280   0.161E+00    0.369E-01
DAV:   2    -0.160581378088E+04   -0.44297E-02   -0.46152E-02  1896   0.310E-01    0.193E-01
DAV:   3    -0.160581389181E+04   -0.11093E-03   -0.19802E-03  2632   0.979E-02    0.142E-01
DAV:   4    -0.160581387005E+04    0.21757E-04   -0.19719E-04  2224   0.278E-02    0.389E-02
DAV:   5    -0.160581387136E+04   -0.13037E-05   -0.32878E-05  1768   0.129E-02
     96 T=   257. E= -.15544802E+04 F= -.16267974E+04 E0= -.16267974E+04  EK= 0.11040E+02 SP= 0.61E+02 SK= 0.12E-02
       N       E                     dE             d eps       ncg     rms          rms(c)
DAV:   1    -0.160585244265E+04   -0.38573E-01   -0.18647E-02  2336   0.162E+00    0.378E-01
DAV:   2    -0.160585695337E+04   -0.45107E-02   -0.47102E-02  1912   0.311E-01    0.182E-01
DAV:   3    -0.160585706409E+04   -0.11072E-03   -0.19634E-03  2624   0.944E-02    0.133E-01
DAV:   4    -0.160585704466E+04    0.19425E-04   -0.17899E-04  2200   0.264E-02    0.386E-02
DAV:   5    -0.160585704601E+04   -0.13433E-05   -0.28945E-05  1784   0.123E-02
     97 T=   258. E= -.15544816E+04 F= -.16268502E+04 E0= -.16268502E+04  EK= 0.11093E+02 SP= 0.61E+02 SK= 0.14E-02
       N       E                     dE             d eps       ncg     rms          rms(c)
DAV:   1    -0.160591891872E+04   -0.61874E-01   -0.18796E-02  2288   0.161E+00    0.383E-01
DAV:   2    -0.160592337331E+04   -0.44546E-02   -0.46520E-02  1888   0.313E-01    0.178E-01
DAV:   3    -0.160592348182E+04   -0.10851E-03   -0.19714E-03  2640   0.974E-02    0.128E-01
DAV:   4    -0.160592346514E+04    0.16682E-04   -0.18968E-04  2240   0.266E-02    0.371E-02
DAV:   5    -0.160592346672E+04   -0.15737E-05   -0.27612E-05  1728   0.124E-02
     98 T=   260. E= -.15544826E+04 F= -.16269260E+04 E0= -.16269260E+04  EK= 0.11170E+02 SP= 0.61E+02 SK= 0.15E-02
       N       E                     dE             d eps       ncg     rms          rms(c)
DAV:   1    -0.160599904082E+04   -0.75576E-01   -0.19414E-02  2232   0.162E+00    0.394E-01
DAV:   2    -0.160600364080E+04   -0.46000E-02   -0.47936E-02  1984   0.320E-01    0.183E-01
DAV:   3    -0.160600374328E+04   -0.10248E-03   -0.19785E-03  2520   0.957E-02    0.131E-01
DAV:   4    -0.160600372994E+04    0.13335E-04   -0.21491E-04  2240   0.270E-02    0.386E-02
DAV:   5    -0.160600373219E+04   -0.22517E-05   -0.27032E-05  1728   0.121E-02
     99 T=   262. E= -.15544825E+04 F= -.16270151E+04 E0= -.16270151E+04  EK= 0.11261E+02 SP= 0.61E+02 SK= 0.17E-02
       N       E                     dE             d eps       ncg     rms          rms(c)
DAV:   1    -0.160609170344E+04   -0.87973E-01   -0.19042E-02  2216   0.162E+00    0.390E-01
DAV:   2    -0.160609627199E+04   -0.45686E-02   -0.47525E-02  1896   0.318E-01    0.186E-01
DAV:   3    -0.160609637784E+04   -0.10585E-03   -0.19901E-03  2648   0.978E-02    0.135E-01
DAV:   4    -0.160609636122E+04    0.16619E-04   -0.19672E-04  2176   0.264E-02    0.392E-02
DAV:   5    -0.160609636346E+04   -0.22361E-05   -0.28058E-05  1744   0.124E-02
    100 T=   265. E= -.15544829E+04 F= -.16271155E+04 E0= -.16271155E+04  EK= 0.11363E+02 SP= 0.61E+02 SK= 0.19E-02
