       N       E                     dE             d eps       ncg     rms          rms(c)
DAV:   1     0.102293715062E+05    0.10229E+05   -0.48133E+05  1592   0.116E+03
DAV:   2    -0.444296295990E+03   -0.10674E+05   -0.95729E+04  1960   0.483E+02
DAV:   3    -0.169721740178E+04   -0.12529E+04   -0.12327E+04  2000   0.135E+02
DAV:   4    -0.176565960448E+04   -0.68442E+02   -0.68058E+02  2528   0.498E+01
DAV:   5    -0.176664322340E+04   -0.98362E+00   -0.98024E+00  2008   0.524E+00    0.993E+01
DAV:   6    -0.160837219763E+04    0.15827E+03   -0.39472E+02  2408   0.339E+01    0.743E+01
DAV:   7    -0.160754490561E+04    0.82729E+00   -0.20821E+01  2024   0.607E+00    0.544E+01
DAV:   8    -0.160644652100E+04    0.10984E+01   -0.77159E+00  2064   0.646E+00    0.135E+01
DAV:   9    -0.160618313990E+04    0.26338E+00   -0.15540E+00  2008   0.263E+00    0.219E+00
DAV:  10    -0.160620027165E+04   -0.17132E-01   -0.17266E-01  2264   0.608E-01    0.109E+00
DAV:  11    -0.160617449332E+04    0.25778E-01   -0.31482E-02  2056   0.542E-01    0.409E-01
DAV:  12    -0.160614629244E+04    0.28201E-01   -0.33173E-02  1992   0.455E-01    0.292E-01
DAV:  13    -0.160613864570E+04    0.76467E-02   -0.16345E-02  2160   0.284E-01    0.182E-01
DAV:  14    -0.160613715311E+04    0.14926E-02   -0.54889E-03  2096   0.138E-01    0.146E-01
DAV:  15    -0.160613636276E+04    0.79034E-03   -0.81816E-04  2376   0.656E-02    0.642E-02
DAV:  16    -0.160613575564E+04    0.60712E-03   -0.24421E-04  2400   0.877E-02    0.272E-02
DAV:  17    -0.160613573375E+04    0.21894E-04   -0.49427E-04  2104   0.385E-02    0.287E-02
DAV:  18    -0.160613572499E+04    0.87516E-05   -0.10918E-04  2008   0.170E-02    0.219E-02
DAV:  19    -0.160613572005E+04    0.49461E-05   -0.10423E-05  1560   0.775E-03
      1 T=   271. E= -.15544670E+04 F= -.16272529E+04 E0= -.16272529E+04  EK= 0.11622E+02 SP= 0.61E+02 SK= 0.61E-02
       N       E                     dE             d eps       ncg     rms          rms(c)
DAV:   1    -0.160604177328E+04    0.93952E-01   -0.22681E+01  1552   0.764E+00    0.212E+00
DAV:   2    -0.160608780053E+04   -0.46027E-01   -0.55788E-01  2312   0.140E+00    0.149E+00
DAV:   3    -0.160608897758E+04   -0.11770E-02   -0.27325E-02  2528   0.318E-01    0.920E-01
DAV:   4    -0.160609095254E+04   -0.19750E-02   -0.49503E-03  1928   0.153E-01    0.272E-01
DAV:   5    -0.160609126258E+04   -0.31004E-03   -0.15732E-03  2248   0.806E-02    0.868E-02
DAV:   6    -0.160609122353E+04    0.39056E-04   -0.51396E-04  2368   0.415E-02    0.709E-02
DAV:   7    -0.160609118883E+04    0.34692E-04   -0.63884E-05  1960   0.208E-02    0.322E-02
DAV:   8    -0.160609116330E+04    0.25536E-04   -0.26636E-05  1728   0.152E-02    0.988E-03
DAV:   9    -0.160609115905E+04    0.42477E-05   -0.18486E-05  1744   0.796E-03
      2 T=   270. E= -.15544655E+04 F= -.16272074E+04 E0= -.16272074E+04  EK= 0.11575E+02 SP= 0.61E+02 SK= 0.59E-02
       N       E                     dE             d eps       ncg     rms          rms(c)
DAV:   1    -0.160600275859E+04    0.88405E-01   -0.46625E-01  1608   0.201E+00    0.893E-01
DAV:   2    -0.160602109134E+04   -0.18333E-01   -0.19569E-01  2056   0.684E-01    0.504E-01
DAV:   3    -0.160602139599E+04   -0.30465E-03   -0.86480E-03  2552   0.182E-01    0.382E-01
DAV:   4    -0.160602130047E+04    0.95519E-04   -0.95297E-04  2256   0.644E-02    0.149E-01
DAV:   5    -0.160602131696E+04   -0.16486E-04   -0.22368E-04  2128   0.318E-02    0.417E-02
DAV:   6    -0.160602131418E+04    0.27743E-05   -0.85570E-05  2256   0.165E-02
      3 T=   268. E= -.15544630E+04 F= -.16271361E+04 E0= -.16271361E+04  EK= 0.11502E+02 SP= 0.61E+02 SK= 0.57E-02
       N       E                     dE             d eps       ncg     rms          rms(c)
DAV:   1    -0.160596202103E+04    0.59296E-01   -0.22372E-02  2152   0.166E+00    0.426E-01
DAV:   2    -0.160596688413E+04   -0.48631E-02   -0.50965E-02  1976   0.328E-01    0.176E-01
DAV:   3    -0.160596697833E+04   -0.94199E-04   -0.21128E-03  2584   0.101E-01    0.125E-01
DAV:   4    -0.160596694627E+04    0.32060E-04   -0.19449E-04  2160   0.269E-02    0.381E-02
DAV:   5    -0.160596694259E+04    0.36804E-05   -0.31239E-05  1856   0.132E-02
      4 T=   267. E= -.15544610E+04 F= -.16270794E+04 E0= -.16270794E+04  EK= 0.11444E+02 SP= 0.61E+02 SK= 0.54E-02
       N       E                     dE             d eps       ncg     rms          rms(c)
DAV:   1    -0.160596071009E+04    0.62362E-02   -0.21574E-02  2176   0.165E+00    0.377E-01
DAV:   2    -0.160596553990E+04   -0.48298E-02   -0.50093E-02  1952   0.325E-01    0.198E-01
DAV:   3    -0.160596565515E+04   -0.11525E-03   -0.20820E-03  2544   0.979E-02    0.149E-01
DAV:   4    -0.160596563346E+04    0.21689E-04   -0.20750E-04  2152   0.284E-02    0.426E-02
DAV:   5    -0.160596563358E+04   -0.12182E-06   -0.35123E-05  1920   0.133E-02
      5 T=   267. E= -.15544603E+04 F= -.16270751E+04 E0= -.16270751E+04  EK= 0.11437E+02 SP= 0.61E+02 SK= 0.52E-02
       N       E                     dE             d eps       ncg     rms          rms(c)
DAV:   1    -0.160602584974E+04   -0.60216E-01   -0.19338E-02  2216   0.165E+00    0.386E-01
DAV:   2    -0.160603048542E+04   -0.46357E-02   -0.48213E-02  1888   0.320E-01    0.181E-01
DAV:   3    -0.160603059478E+04   -0.10936E-03   -0.20489E-03  2624   0.981E-02    0.132E-01
DAV:   4    -0.160603057002E+04    0.24758E-04   -0.17673E-04  2176   0.261E-02    0.376E-02
DAV:   5    -0.160603056976E+04    0.26448E-06   -0.31770E-05  1952   0.128E-02
      6 T=   268. E= -.15544621E+04 F= -.16271364E+04 E0= -.16271364E+04  EK= 0.11493E+02 SP= 0.61E+02 SK= 0.49E-02
       N       E                     dE             d eps       ncg     rms          rms(c)
DAV:   1    -0.160613617123E+04   -0.10560E+00   -0.18396E-02  2184   0.167E+00    0.382E-01
DAV:   2    -0.160614074723E+04   -0.45760E-02   -0.47424E-02  1928   0.318E-01    0.182E-01
DAV:   3    -0.160614085060E+04   -0.10337E-03   -0.19294E-03  2640   0.948E-02    0.132E-01
DAV:   4    -0.160614083336E+04    0.17243E-04   -0.17724E-04  2208   0.256E-02    0.364E-02
DAV:   5    -0.160614083512E+04   -0.17559E-05   -0.28392E-05  1784   0.121E-02
      7 T=   270. E= -.15544648E+04 F= -.16272425E+04 E0= -.16272425E+04  EK= 0.11593E+02 SP= 0.61E+02 SK= 0.47E-02
       N       E                     dE             d eps       ncg     rms          rms(c)
DAV:   1    -0.160625053042E+04   -0.10970E+00   -0.17732E-02  2160   0.168E+00    0.380E-01
DAV:   2    -0.160625503540E+04   -0.45050E-02   -0.46696E-02  1912   0.318E-01    0.180E-01
DAV:   3    -0.160625514674E+04   -0.11134E-03   -0.19623E-03  2640   0.973E-02    0.131E-01
DAV:   4    -0.160625513334E+04    0.13408E-04   -0.17189E-04  2176   0.244E-02    0.382E-02
DAV:   5    -0.160625513636E+04   -0.30217E-05   -0.23890E-05  1672   0.116E-02
      8 T=   273. E= -.15544672E+04 F= -.16273526E+04 E0= -.16273526E+04  EK= 0.11697E+02 SP= 0.61E+02 SK= 0.45E-02
       N       E                     dE             d eps       ncg     rms          rms(c)
DAV:   1    -0.160632691139E+04   -0.71778E-01   -0.20327E-02  2232   0.169E+00    0.394E-01
DAV:   2    -0.160633171311E+04   -0.48017E-02   -0.49796E-02  1928   0.324E-01    0.179E-01
DAV:   3    -0.160633183410E+04   -0.12099E-03   -0.20741E-03  2568   0.987E-02    0.129E-01
DAV:   4    -0.160633182326E+04    0.10839E-04   -0.19264E-04  2224   0.258E-02    0.380E-02
DAV:   5    -0.160633182652E+04   -0.32660E-05   -0.24941E-05  1720   0.117E-02
      9 T=   274. E= -.15544684E+04 F= -.16274253E+04 E0= -.16274253E+04  EK= 0.11766E+02 SP= 0.61E+02 SK= 0.43E-02
       N       E                     dE             d eps       ncg     rms          rms(c)
DAV:   1    -0.160634367902E+04   -0.11856E-01   -0.20679E-02  2256   0.169E+00    0.397E-01
DAV:   2    -0.160634859735E+04   -0.49183E-02   -0.51006E-02  1928   0.327E-01    0.190E-01
DAV:   3    -0.160634870579E+04   -0.10844E-03   -0.19721E-03  2528   0.950E-02    0.138E-01
DAV:   4    -0.160634869018E+04    0.15606E-04   -0.21159E-04  2168   0.282E-02    0.362E-02
DAV:   5    -0.160634869295E+04   -0.27712E-05   -0.32746E-05  1904   0.125E-02
     10 T=   274. E= -.15544679E+04 F= -.16274385E+04 E0= -.16274385E+04  EK= 0.11776E+02 SP= 0.61E+02 SK= 0.42E-02
