unknown system                          
           1
    14.899721    0.000000    0.000000
     0.000000   14.899721    0.000000
     0.000000    0.000000   14.899721
   H    O    K 
   221   111     1
Direct configuration=     1
   0.92553033  0.16937140  0.78518768
   0.97556120  0.25931247  0.83135254
   0.70474915  0.99488490  0.14701507
   0.75630832  0.91342491  0.11588105
   0.09071829  0.18227111  0.30216005
   0.07066485  0.22796017  0.20856733
   0.76920846  0.23821904  0.67883746
   0.86849810  0.24298783  0.70082314
   0.00777200  0.06849342  0.48679306
   0.98004018  0.09632648  0.38792687
   0.84279691  0.04677927  0.34437889
   0.87623452  0.13404393  0.30225139
   0.23862960  0.93124558  0.67743384
   0.19432321  0.02926337  0.65823392
   0.97840106  0.67221986  0.34719452
   0.07961660  0.66946684  0.31586843
   0.22328739  0.04777379  0.94370366
   0.19585416  0.08952096  0.02991399
   0.08246779  0.52183890  0.32268430
   0.16563168  0.46337151  0.34216681
   0.63638519  0.23381093  0.76568603
   0.61524681  0.31210988  0.69990750
   0.24439750  0.65301778  0.34137035
   0.21196294  0.74397439  0.29548278
   0.56692200  0.52510984  0.28825526
   0.54973057  0.56849373  0.38997743
   0.85128807  0.62321461  0.44060821
   0.92103466  0.68394990  0.50323059
   0.49236751  0.23317667  0.04243447
   0.40811679  0.29582710  0.04364547
   0.82643746  0.26503587  0.31879364
   0.91857469  0.27067130  0.36475555
   0.63579692  0.10181750  0.23298733
   0.56153792  0.01803044  0.22655942
   0.10067685  0.84366031  0.09099176
   0.01559936  0.80277869  0.05060568
   0.28588329  0.83736656  0.81335230
   0.19183196  0.79467644  0.82121511
   0.40912788  0.76495138  0.97074553
   0.48027988  0.79306490  0.89749441
   0.25246744  0.38186665  0.82232766
   0.27423186  0.42878922  0.91751831
   0.50370990  0.60885538  0.94016240
   0.51202464  0.50840189  0.92623356
   0.94169776  0.00529268  0.79901679
   0.84282366  0.03064399  0.76123425
   0.04053822  0.30367803  0.58106250
   0.02430228  0.27740292  0.67877683
   0.52994609  0.97287645  0.48916782
   0.49741698  0.97677203  0.58873565
   0.49545986  0.21798932  0.27986714
   0.41289349  0.27656789  0.26985102
   0.33373701  0.43963481  0.17906163
   0.27347972  0.38773118  0.25278979
   0.50592817  0.35877418  0.87310351
   0.40674909  0.38438093  0.84748876
   0.91618264  0.46940542  0.03164045
   0.91523406  0.49441269  0.13269134
   0.93388309  0.84713225  0.88354510
   0.91357339  0.87687256  0.97953646
   0.68355160  0.26007948  0.22944225
   0.74321489  0.18579769  0.18145414
   0.90515561  0.80025747  0.37742316
   0.85575467  0.89763418  0.37351325
   0.81286127  0.17044812  0.98250977
   0.79212568  0.10680883  0.90686968
   0.98822060  0.62314601  0.09416742
   0.00545493  0.67664871  0.17719733
   0.03051773  0.97214176  0.63017075
   0.92839680  0.99796823  0.61297261
   0.70851512  0.94925119  0.74076026
   0.66674761  0.04106609  0.75611327
   0.07720851  0.94301150  0.89362222
   0.10388912  0.94059321  0.79346231
   0.43460037  0.01387198  0.94383400
   0.53617750  0.98401011  0.95217044
   0.45148321  0.79029437  0.39784941
   0.46021758  0.76923569  0.29331900
   0.73095696  0.70171175  0.18210612
   0.68821877  0.60989395  0.17169474
   0.37110769  0.46427530  0.03203103
   0.45464228  0.46870057  0.10075468
   0.69733242  0.84826616  0.44356110
   0.74914630  0.75858731  0.45934684
   0.09394232  0.54546910  0.47759433
   0.14117154  0.48582985  0.54780258
   0.88529236  0.24220044  0.16563599
   0.85013569  0.27264004  0.07620633
   0.44730224  0.62178269  0.27023683
   0.39022960  0.65776375  0.19120191
   0.58052044  0.09571356  0.87218593
   0.50917334  0.14955383  0.82821582
   0.01704796  0.38675297  0.12888651
   0.11044906  0.34045993  0.08171929
   0.18605018  0.50610976  0.19721967
   0.10629087  0.49928494  0.12458738
   0.43509003  0.88079451  0.79701012
   0.34939554  0.84447438  0.69444738
   0.08290649  0.67062376  0.77384727
   0.07038223  0.74402545  0.70467139
   0.24109955  0.18272541  0.62028815
   0.14457977  0.17631793  0.65942602
   0.62782444  0.45618358  0.09368278
   0.58738416  0.53899579  0.07743057
   0.71464055  0.79430655  0.82924447
   0.79712266  0.85113586  0.86445883
   0.60485354  0.59037508  0.78338338
   0.53379353  0.52070109  0.79999350
   0.48222811  0.90828520  0.15109043
   0.45714915  0.98304733  0.07815750
   0.75899871  0.40636587  0.32149698
   0.67281168  0.35177792  0.36233799
   0.95869374  0.10050613  0.94842441
   0.05918163  0.07675784  0.97075137
   0.62814398  0.28245104  0.95000299
   0.63947694  0.35244103  0.86865171
   0.59503168  0.11943056  0.03168805
   0.63463786  0.19979911  0.08802815
   0.53457810  0.78314569  0.04943443
   0.50111434  0.73628623  0.13772085
   0.32560316  0.51241586  0.55269582
   0.36854244  0.42679332  0.52118955
   0.59259128  0.69627240  0.44644719
   0.53311682  0.64938734  0.52285597
   0.84731745  0.35543458  0.93412635
   0.76260314  0.38639311  0.96607328
   0.29047434  0.57317927  0.02760384
   0.31701335  0.57186894  0.92397985
   0.22954925  0.32681608  0.98231232
   0.24062335  0.24291193  0.04225098
   0.30069740  0.76315154  0.53260275
   0.39770281  0.76321129  0.58437787
   0.42587547  0.31368107  0.58308787
   0.38317297  0.25720752  0.51287891
   0.06628290  0.75960796  0.52563761
   0.98805385  0.82233494  0.53118864
   0.98482913  0.34059542  0.98464478
   0.05128739  0.27011166  0.95141397
   0.29293423  0.99182647  0.81950774
   0.32712227  0.09308094  0.84198801
   0.18080006  0.36378794  0.68549834
   0.22623577  0.44892205  0.70697820
   0.82581839  0.53648396  0.23240178
   0.91919863  0.52422962  0.28554249
   0.20494285  0.88729006  0.20593518
   0.11636853  0.86356009  0.25530174
   0.59578144  0.10792376  0.36595948
   0.57968382  0.12996466  0.46604285
   0.23594795  0.93201571  0.44696086
   0.16895307  0.94889524  0.52625102
   0.25071111  0.11876549  0.44738290
   0.16080822  0.09435847  0.40337677
   0.67692730  0.79887083  0.65874616
   0.61402995  0.87100563  0.61700401
   0.72508252  0.95776003  0.91092487
   0.70518270  0.00269943  0.00054480
   0.99147191  0.53106825  0.59557589
   0.94876868  0.44656626  0.65352559
   0.41644783  0.10192466  0.57686064
   0.39673869  0.05161075  0.48349892
   0.29323404  0.70197446  0.84492947
   0.37677164  0.65719284  0.80077481
   0.88880807  0.78747107  0.14148829
   0.82039048  0.83085048  0.20605288
   0.19287958  0.72111827  0.46061962
   0.18946266  0.66363412  0.54346753
   0.23424459  0.23105660  0.23662570
   0.27420523  0.23150993  0.32952910
   0.00125645  0.90993435  0.33721813
   0.09342067  0.93893941  0.37191710
   0.85924345  0.74293947  0.67226702
   0.80574720  0.66613561  0.62238242
   0.55678046  0.40178884  0.39152137
   0.54633600  0.29528218  0.39512969
   0.75019043  0.65412008  0.84476295
   0.73542372  0.66802002  0.73934561
   0.78751252  0.45540441  0.75275546
   0.77952912  0.35972067  0.78958226
   0.86662504  0.69976775  0.96165509
   0.80829454  0.64594067  0.02884843
   0.47885020  0.03246476  0.73650540
   0.39185668  0.98923267  0.69411041
   0.66539656  0.52042228  0.65822597
   0.74044359  0.50555753  0.59119729
   0.69502186  0.98907551  0.35790207
   0.74288054  0.00772098  0.45447565
   0.25016045  0.08188680  0.16579972
   0.15751811  0.13080678  0.17972514
   0.97798478  0.57762468  0.82571388
   0.95759774  0.57524248  0.72549439
   0.75906955  0.05326678  0.61368599
   0.81408155  0.11913484  0.55590676
   0.56901271  0.39145691  0.57810284
   0.52217463  0.42209363  0.67345223
   0.77389610  0.48631686  0.43376518
   0.70002797  0.54802691  0.39204412
   0.54399999  0.73436994  0.65126420
   0.50337859  0.64150799  0.67152323
   0.21273659  0.64635196  0.14958892
   0.26319045  0.72540068  0.10288507
   0.32595035  0.53075606  0.31557010
   0.35546151  0.55992275  0.41025951
   0.28913944  0.00762581  0.31150378
   0.36159150  0.98261248  0.23389114
   0.25860613  0.33351444  0.51382057
   0.24440827  0.34109713  0.41251544
   0.36752263  0.89386929  0.47409628
   0.40857402  0.91860672  0.38347915
   0.19012670  0.60639728  0.67106133
   0.26352605  0.60328266  0.74133709
   0.53017099  0.83973464  0.78918066
   0.28367174  0.83050681  0.97058442
   0.06646368  0.32051081  0.42380094
   0.01643924  0.23479523  0.44835848
   0.80437557  0.36235846  0.55010572
   0.73367667  0.32078522  0.49355178
   0.68320274  0.78406682  0.28964868
   0.62919591  0.80559289  0.21002912
   0.39463165  0.23102254  0.87869211
   0.38414491  0.25210282  0.77555226
   0.34241746  0.87675644  0.04632345
   0.95766484  0.22505400  0.77679560
   0.74813324  0.97677148  0.09964194
   0.06566856  0.17077468  0.24248168
   0.82737112  0.23598023  0.65050075
   0.02226996  0.10785685  0.43604313
   0.88797857  0.06788319  0.30452700
   0.18111310  0.96496544  0.66951926
   0.01922459  0.65221061  0.29918996
   0.17162429  0.04901173  0.98730406
   0.10963720  0.48143514  0.36785411
   0.66283207  0.28801184  0.73975755
   0.20048875  0.70347787  0.34641417
   0.57433059  0.51560592  0.35196870
   0.89210316  0.67605918  0.44559034
   0.43006163  0.23817823  0.02425609
   0.88724805  0.24790195  0.31191828
   0.61347865  0.04594951  0.25731469
   0.05592908  0.85270859  0.04441680
   0.24547702  0.80036695  0.85420067
   0.46236504  0.73928613  0.94021367
   0.28869326  0.37767189  0.87807152
   0.54733727  0.55848430  0.94054613
   0.90697087  0.03118192  0.75279595
   0.06575164  0.31009714  0.64076579
   0.54109494  0.95131910  0.55008048
   0.47855867  0.28346176  0.27436368
   0.29300818  0.45034006  0.23253512
   0.46970700  0.39799652  0.83239648
   0.95726255  0.49066401  0.07945429
   0.89618468  0.83200589  0.93674771
   0.68232103  0.20359616  0.19981083
   0.91491272  0.86443609  0.38313923
   0.83528577  0.15445477  0.92267226
   0.97802061  0.68431457  0.11635026
   0.98288843  0.97138182  0.58299291
   0.71719360  0.01200657  0.72369115
   0.05212227  0.92768291  0.83450646
   0.48733582  0.01537234  0.98140661
   0.47808336  0.81438925  0.33900556
   0.74766942  0.63698079  0.16907959
   0.40018117  0.43404388  0.08123313
   0.69044269  0.78565511  0.43941835
   0.10987504  0.54241757  0.54061638
   0.85534579  0.21846359  0.11325656
   0.44951632  0.66451077  0.21802168
   0.56242967  0.11593044  0.81119051
   0.07390973  0.35377425  0.13848135
   0.14025465  0.53916914  0.16137071
   0.33823482  0.88609066  0.74351711
   0.12043075  0.70859948  0.72939804
   0.19145079  0.14089314  0.62852761
   0.58985929  0.49514682  0.12886298
   0.73839501  0.85478738  0.83454532
   0.55629315  0.55583599  0.74813691
   0.45981818  0.97188548  0.14865852
   0.71889883  0.35603667  0.31261043
   0.99726390  0.06481245  0.98971207
   0.62463802  0.34742119  0.93364623
   0.60939975  0.18353819  0.02792524
   0.53103999  0.79222961  0.11335252
   0.37831397  0.49212404  0.51491912
   0.54940234  0.65187324  0.45811973
   0.82449141  0.37590920  0.99162350
   0.30369606  0.53460046  0.97596211
   0.19615231  0.28135858  0.01573382
   0.35606292  0.80064207  0.54658405
   0.36755954  0.28742007  0.56818916
   0.00641641  0.76261230  0.55241315
   0.00771343  0.31376803  0.92878532
   0.30282923  0.03591427  0.86932537
   0.23832076  0.38446477  0.70749932
   0.87675895  0.49659059  0.24151480
   0.15849113  0.83889819  0.20979952
   0.60355964  0.15861432  0.40920492
   0.17486740  0.95550096  0.46108529
   0.20978772  0.13731111  0.39928137
   0.61910912  0.82483446  0.66589917
   0.68910533  0.00720199  0.93356970
   0.93812776  0.50635957  0.62636049
   0.41111595  0.11025947  0.51170225
   0.31904172  0.64261166  0.82822066
   0.86081916  0.84613774  0.15525773
   0.18949628  0.72606066  0.52667763
   0.26009838  0.27550915  0.28155963
   0.05885964  0.93778816  0.31553346
   0.80479376  0.73032971  0.63906014
   0.57519384  0.34852984  0.42225063
   0.70499208  0.66542243  0.79848277
   0.81344505  0.41497934  0.79982932
   0.81909473  0.65518654  0.96554540
   0.43657340  0.03741446  0.68393490
   0.73169721  0.53097954  0.64997468
   0.74343361  0.97008783  0.39745051
   0.21528147  0.13859227  0.15402324
   0.96926147  0.61864421  0.77685542
   0.78499017  0.05966570  0.55227838
   0.54435303  0.37359170  0.63525051
   0.76183647  0.54682957  0.41646029
   0.49743255  0.69079929  0.62911272
   0.27085887  0.66601971  0.12178935
   0.34024126  0.58481756  0.35177285
   0.29802045  0.99069118  0.24841001
   0.21426344  0.35017030  0.46932178
   0.36953906  0.94614748  0.42934016
   0.23692069  0.56763722  0.68915634
   0.49581046  0.87618545  0.83278624
   0.00642926  0.30011158  0.44434117
   0.76175688  0.38055355  0.50408988
   0.68970852  0.80061791  0.22810402
   0.39586013  0.20488226  0.82065370
   0.31927790  0.81809267  0.02481767
   0.96960231  0.00536637  0.14941286
Direct configuration=     2
   0.92557854  0.16906772  0.78567182
   0.97561471  0.25932505  0.83164375
   0.70419809  0.99472868  0.14718486
   0.75744084  0.91429098  0.11533249
   0.09036545  0.18240319  0.30127287
   0.07036360  0.22825987  0.20913255
   0.76910039  0.23760559  0.67992643
   0.86891293  0.24297505  0.70007852
   0.00775731  0.06882118  0.48682997
   0.97922702  0.09659637  0.38822049
   0.84260576  0.04680798  0.34490376
   0.87583666  0.13391024  0.30308101
   0.23899967  0.93072846  0.67759613
   0.19495880  0.02878099  0.65874071
   0.97807837  0.67104746  0.34686436
   0.07915018  0.67025051  0.31541651
   0.22368929  0.04832508  0.94376045
   0.19550300  0.08994040  0.02910081
   0.08180938  0.52224827  0.32303103
   0.16559773  0.46355498  0.34244550
   0.63588015  0.23414831  0.76572019
   0.61458531  0.31191485  0.70065040
   0.24452122  0.65236312  0.34191566
   0.21128759  0.74369558  0.29549708
   0.56662575  0.52536646  0.28880316
   0.54946474  0.56827279  0.39037938
   0.85165096  0.62373893  0.44058306
   0.92090436  0.68526021  0.50302663
   0.49206401  0.23302003  0.04187196
   0.40788432  0.29622664  0.04426172
   0.82677161  0.26584003  0.31871092
   0.91801044  0.27069824  0.36544724
   0.63557673  0.10216199  0.23241191
   0.56261875  0.01810097  0.22708862
   0.10142237  0.84429777  0.09075942
   0.01533360  0.80307511  0.05062123
   0.28524376  0.83748242  0.81329839
   0.19192040  0.79416941  0.82150197
   0.40906313  0.76469147  0.97013219
   0.48069288  0.79345578  0.89710133
   0.25280392  0.38251823  0.82250787
   0.27451462  0.42843523  0.91796744
   0.50293349  0.60906639  0.94062766
   0.51218620  0.50812512  0.92610085
   0.94107316  0.00565886  0.79902983
   0.84227004  0.03105216  0.76089946
   0.04008829  0.30252248  0.58117481
   0.02487502  0.27755930  0.67935094
   0.52968065  0.97268346  0.48900484
   0.49666611  0.97682254  0.58835528
   0.49484055  0.21795926  0.28057176
   0.41324825  0.27692615  0.26896908
   0.33342925  0.43936752  0.17970284
   0.27384542  0.38785893  0.25201818
   0.50505304  0.35828283  0.87364700
   0.40710485  0.38409474  0.84729590
   0.91684216  0.46914360  0.03157373
   0.91457340  0.49466266  0.13278951
   0.93292881  0.84668248  0.88320126
   0.91303418  0.87684730  0.97944306
   0.68396778  0.26073001  0.22983043
   0.74310735  0.18592097  0.18154689
   0.90545089  0.80036729  0.37674375
   0.85551883  0.89767413  0.37387150
   0.81230093  0.16991775  0.98240965
   0.79178720  0.10645559  0.90718059
   0.98705530  0.62304444  0.09396979
   0.00485408  0.67654724  0.17642211
   0.03029025  0.97194937  0.62961657
   0.92839383  0.99772579  0.61395638
   0.70812094  0.95068392  0.74035661
   0.66659033  0.04100963  0.75531690
   0.07775082  0.94254315  0.89430452
   0.10409435  0.94145201  0.79341852
   0.43471859  0.01420510  0.94386412
   0.53582025  0.98369824  0.95204658
   0.45093970  0.79093283  0.39724564
   0.45938825  0.76893105  0.29319412
   0.73120076  0.70194175  0.18145006
   0.68714420  0.61069439  0.17173503
   0.37083765  0.46460338  0.03169341
   0.45503496  0.46774819  0.10124413
   0.69757744  0.84797960  0.44410757
   0.74838887  0.75839788  0.45938445
   0.09456391  0.54593698  0.47839192
   0.14066910  0.48593005  0.54814255
   0.88527012  0.24299943  0.16563918
   0.85035339  0.27244068  0.07553043
   0.44696966  0.62184169  0.27036764
   0.38976406  0.65751429  0.19162509
   0.58015246  0.09657322  0.87163896
   0.50860471  0.14970329  0.82757457
   0.01716377  0.38654997  0.12996859
   0.10989917  0.34093749  0.08191054
   0.18619674  0.50607427  0.19704383
   0.10603249  0.49950520  0.12511711
   0.43520139  0.88062101  0.79643528
   0.34949948  0.84492118  0.69422821
   0.08269294  0.67036034  0.77289682
   0.07069946  0.74360429  0.70498620
   0.24094305  0.18288477  0.62016461
   0.14395474  0.17633107  0.65891805
   0.62821247  0.45501394  0.09342419
   0.58662207  0.53911299  0.07755029
   0.71422370  0.79525717  0.82912247
   0.79771532  0.85055458  0.86497659
   0.60435225  0.58986101  0.78321866
   0.53343575  0.52068597  0.80017141
   0.48178655  0.90809356  0.15072231
   0.45738541  0.98359167  0.07832834
   0.75874194  0.40550466  0.32162112
   0.67331027  0.35157066  0.36190923
   0.95959474  0.10029671  0.94909041
   0.05972837  0.07621310  0.97095681
   0.62748424  0.28234146  0.94926618
   0.63948017  0.35290548  0.86877971
   0.59451026  0.12004303  0.03121876
   0.63418311  0.19979517  0.08758612
   0.53481008  0.78324601  0.04961437
   0.50091518  0.73639464  0.13758109
   0.32666379  0.51350157  0.55289175
   0.36912759  0.42701676  0.52103744
   0.59287669  0.69644163  0.44671722
   0.53315547  0.64894954  0.52231935
   0.84732067  0.35510659  0.93462093
   0.76205182  0.38563543  0.96732163
   0.29072802  0.57298283  0.02707722
   0.31747050  0.57207028  0.92416660
   0.22948891  0.32639041  0.98281829
   0.24119170  0.24248897  0.04316276
   0.30108921  0.76272313  0.53200317
   0.39811763  0.76297395  0.58364280
   0.42579473  0.31376277  0.58271979
   0.38295985  0.25753682  0.51310818
   0.06608943  0.75991216  0.52555785
   0.98785754  0.82275709  0.53097007
   0.98474755  0.34111659  0.98504941
   0.05092513  0.26963179  0.95151560
   0.29224509  0.99138752  0.81994680
   0.32733857  0.09283941  0.84216202
   0.18061990  0.36311354  0.68510580
   0.22620151  0.44903654  0.70707058
   0.82558290  0.53703916  0.23259177
   0.91953519  0.52469796  0.28585719
   0.20471411  0.88744984  0.20600876
   0.11589301  0.86332370  0.25611531
   0.59594752  0.10755492  0.36638717
   0.57987975  0.13025553  0.46639649
   0.23598698  0.93263338  0.44776696
   0.16865764  0.94940193  0.52666871
   0.25014340  0.11785434  0.44734707
   0.16106432  0.09361658  0.40358230
   0.67649178  0.79877744  0.65856331
   0.61422806  0.87111633  0.61686825
   0.72457496  0.95679748  0.91070963
   0.70507221  0.00305598  0.00122429
   0.99016320  0.53065729  0.59500934
   0.94844715  0.44623516  0.65467543
   0.41592271  0.10188050  0.57754011
   0.39755893  0.05096407  0.48332483
   0.29366810  0.70188695  0.84505555
   0.37719017  0.65721820  0.80124107
   0.88937208  0.78773330  0.14057942
   0.82100071  0.83130528  0.20595508
   0.19208815  0.72017114  0.45979433
   0.18909164  0.66335740  0.54341550
   0.23491196  0.23031353  0.23790790
   0.27431763  0.23224691  0.32998422
   0.00174163  0.90876912  0.33631318
   0.09285623  0.93769808  0.37124011
   0.86052304  0.74336662  0.67235123
   0.80597462  0.66610735  0.62271051
   0.55697397  0.40253936  0.39205926
   0.54671155  0.29556516  0.39562776
   0.75098097  0.65505383  0.84433539
   0.73673369  0.66842085  0.74012176
   0.78681308  0.45573115  0.75273848
   0.77993634  0.35916610  0.79054094
   0.86618551  0.69993241  0.96205000
   0.80832090  0.64712825  0.02836224
   0.47936232  0.03274186  0.73595904
   0.39174632  0.98987345  0.69543556
   0.66547427  0.52012244  0.65826003
   0.74066928  0.50646734  0.59114089
   0.69491332  0.98892624  0.35810943
   0.74329899  0.00747517  0.45378821
   0.25052556  0.08150497  0.16503175
   0.15839059  0.13117722  0.17864983
   0.97807409  0.57667405  0.82525031
   0.95664451  0.57515047  0.72495644
   0.75941108  0.05425193  0.61425703
   0.81273483  0.11923090  0.55616660
   0.56966686  0.39166942  0.57775660
   0.52135883  0.42252280  0.67368168
   0.77431401  0.48677779  0.43409181
   0.70016887  0.54808238  0.39212881
   0.54411266  0.73422224  0.65123014
   0.50323647  0.64146619  0.67131517
   0.21265249  0.64594262  0.14985495
   0.26343477  0.72533717  0.10279033
   0.32581932  0.53072515  0.31519446
   0.35583460  0.56008122  0.41009555
   0.28973872  0.00691622  0.31200403
   0.36234878  0.98282400  0.23445023
   0.25834757  0.33341840  0.51320933
   0.24433907  0.34089277  0.41342527
   0.36780625  0.89416030  0.47406156
   0.40783463  0.91850108  0.38331835
   0.19082290  0.60663392  0.67030630
   0.26433372  0.60383463  0.74096215
   0.53100323  0.84074585  0.78886202
   0.28305894  0.83068565  0.97041351
   0.06659539  0.32050862  0.42393584
   0.01617546  0.23462565  0.44804312
   0.80410133  0.36203220  0.55003070
   0.73334759  0.32131267  0.49325597
   0.68340790  0.78396315  0.29016976
   0.62909155  0.80550094  0.20979761
   0.39507699  0.23252839  0.87802161
   0.38438957  0.25275769  0.77562190
   0.34250273  0.87614972  0.04686406
   0.95760346  0.22522070  0.77681573
   0.74820709  0.97680024  0.09959110
   0.06592385  0.17078346  0.24217417
   0.82727930  0.23584270  0.65041751
   0.02221756  0.10799873  0.43608172
   0.88802080  0.06794277  0.30440935
   0.18100210  0.96473770  0.66956713
   0.01938352  0.65215291  0.29922255
   0.17153090  0.04899625  0.98736495
   0.10958327  0.48158287  0.36773713
   0.66272207  0.28781282  0.73960909
   0.20053331  0.70346105  0.34635832
   0.57446229  0.51559051  0.35187335
   0.89212267  0.67628821  0.44562867
   0.43001817  0.23828174  0.02404252
   0.88727517  0.24793659  0.31197643
   0.61341985  0.04593576  0.25741931
   0.05598426  0.85284053  0.04429705
   0.24559564  0.80028468  0.85440769
   0.46261311  0.73934418  0.94034420
   0.28840412  0.37747364  0.87830915
   0.54736514  0.55850343  0.94066989
   0.90715442  0.03106439  0.75291806
   0.06582767  0.31006750  0.64091124
   0.54122119  0.95129226  0.54979157
   0.47844505  0.28344614  0.27440203
   0.29300462  0.45054438  0.23247219
   0.46964855  0.39770031  0.83238566
   0.95722494  0.49038098  0.07948790
   0.89601949  0.83209940  0.93645189
   0.68250026  0.20359649  0.19991867
   0.91506564  0.86453064  0.38322963
   0.83504436  0.15432793  0.92265662
   0.97800936  0.68410427  0.11628816
   0.98308934  0.97153217  0.58284441
   0.71720537  0.01197412  0.72378766
   0.05212012  0.92777685  0.83437482
   0.48760133  0.01550995  0.98127581
   0.47807730  0.81445337  0.33905880
   0.74750769  0.63672172  0.16913269
   0.40044648  0.43398401  0.08128515
   0.69051513  0.78540281  0.43948893
   0.10989351  0.54208311  0.54061930
   0.85540261  0.21859675  0.11337053
   0.44946688  0.66469654  0.21780693
   0.56249668  0.11570436  0.81113634
   0.07390394  0.35400612  0.13848283
   0.14041790  0.53916727  0.16136247
   0.33805278  0.88597619  0.74361854
   0.12049184  0.70856023  0.72949533
   0.19131704  0.14100153  0.62840594
   0.58997939  0.49518508  0.12882629
   0.73835727  0.85455509  0.83452674
   0.55650423  0.55590805  0.74819437
   0.45995266  0.97177961  0.14864296
   0.71899452  0.35594573  0.31266839
   0.99715609  0.06499876  0.98988956
   0.62432531  0.34734147  0.93364505
   0.60945417  0.18363193  0.02785689
   0.53119230  0.79229523  0.11336831
   0.37830489  0.49214476  0.51496636
   0.54939009  0.65183860  0.45812385
   0.82449923  0.37593219  0.99173784
   0.30362293  0.53468281  0.97605056
   0.19626780  0.28122073  0.01601060
   0.35606259  0.80052408  0.54663889
   0.36743325  0.28735109  0.56814215
   0.00634889  0.76278905  0.55241329
   0.00774712  0.31370628  0.92878169
   0.30292858  0.03585521  0.86926318
   0.23849351  0.38445776  0.70743001
   0.87674062  0.49650323  0.24136603
   0.15857010  0.83882990  0.20990344
   0.60340917  0.15871338  0.40917581
   0.17488034  0.95563019  0.46096607
   0.20966705  0.13735790  0.39926500
   0.61908955  0.82466487  0.66570594
   0.68919213  0.00732612  0.93381292
   0.93798412  0.50638314  0.62644390
   0.41103557  0.11034629  0.51162570
   0.31891676  0.64270743  0.82806969
   0.86070552  0.84597326  0.15501384
   0.18940218  0.72609943  0.52657512
   0.25992633  0.27540415  0.28156629
   0.05897223  0.93795608  0.31560719
   0.80485086  0.73047221  0.63911840
   0.57525809  0.34858726  0.42223981
   0.70517099  0.66540218  0.79852526
   0.81326963  0.41529904  0.79978268
   0.81892119  0.65507818  0.96547792
   0.43662700  0.03732985  0.68392070
   0.73142319  0.53135517  0.65019824
   0.74358555  0.97024643  0.39759576
   0.21542276  0.13839086  0.15382806
   0.96943445  0.61876917  0.77697310
   0.78490274  0.05969264  0.55219672
   0.54424044  0.37360213  0.63513187
   0.76188944  0.54698039  0.41646966
   0.49757557  0.69063835  0.62912068
   0.27060870  0.66601478  0.12175468
   0.34039296  0.58480884  0.35192908
   0.29789872  0.99077866  0.24868940
   0.21443338  0.34995187  0.46957919
   0.36941419  0.94603986  0.42936034
   0.23695062  0.56757485  0.68926555
   0.49588910  0.87623905  0.83251126
   0.00645983  0.30014420  0.44419512
   0.76175536  0.38034785  0.50413542
   0.68960939  0.80058237  0.22790277
   0.39598975  0.20504215  0.82054936
   0.31911998  0.81814790  0.02502013
   0.96954623  0.00528194  0.14933315
Direct configuration=     3
   0.92567788  0.16871483  0.78627155
   0.97552889  0.25921522  0.83190553
   0.70375070  0.99455993  0.14726126
   0.75864267  0.91506807  0.11474311
   0.09002064  0.18254891  0.30041944
   0.07002373  0.22856338  0.20975408
   0.76892218  0.23702847  0.68101441
   0.86942635  0.24299021  0.69938474
   0.00772534  0.06910702  0.48686136
   0.97835806  0.09677602  0.38847961
   0.84229914  0.04673516  0.34550024
   0.87551423  0.13376185  0.30390549
   0.23926677  0.93031302  0.67779839
   0.19562368  0.02828479  0.65925767
   0.97776999  0.66986597  0.34658312
   0.07884334  0.67110187  0.31503885
   0.22395559  0.04881825  0.94380503
   0.19518153  0.09056278  0.02856506
   0.08120937  0.52259581  0.32340454
   0.16567395  0.46371756  0.34267024
   0.63536482  0.23443605  0.76577101
   0.61393285  0.31176872  0.70136080
   0.24463881  0.65180037  0.34247293
   0.21060142  0.74345375  0.29549355
   0.56630618  0.52565408  0.28924052
   0.54929465  0.56794541  0.39066097
   0.85202959  0.62429932  0.44062023
   0.92082644  0.68657786  0.50291276
   0.49185044  0.23287191  0.04132627
   0.40771016  0.29668223  0.04491461
   0.82683090  0.26678603  0.31865927
   0.91752050  0.27077148  0.36614555
   0.63530527  0.10261651  0.23175539
   0.56364617  0.01824180  0.22751448
   0.10216913  0.84490714  0.09057765
   0.01507230  0.80323584  0.05066987
   0.28465428  0.83762912  0.81314592
   0.19172872  0.79360204  0.82165104
   0.40900360  0.76439582  0.96952987
   0.48102208  0.79362953  0.89688114
   0.25313524  0.38316405  0.82264580
   0.27481578  0.42813222  0.91833956
   0.50227622  0.60923870  0.94109140
   0.51218207  0.50756884  0.92593011
   0.94059661  0.00583425  0.79933651
   0.84170062  0.03139235  0.76063114
   0.03965591  0.30139040  0.58122131
   0.02537407  0.27765923  0.68003890
   0.52939274  0.97247113  0.48890857
   0.49578891  0.97698903  0.58809125
   0.49421856  0.21815404  0.28125361
   0.41358059  0.27734418  0.26806584
   0.33308499  0.43913382  0.18035912
   0.27429792  0.38814886  0.25118132
   0.50411580  0.35789947  0.87411616
   0.40737444  0.38385496  0.84712312
   0.91751621  0.46892506  0.03153182
   0.91405317  0.49491105  0.13283152
   0.93200838  0.84621277  0.88295761
   0.91254240  0.87691212  0.97942635
   0.68445513  0.26153489  0.23031375
   0.74304929  0.18615302  0.18163511
   0.90568119  0.80044949  0.37609440
   0.85550876  0.89753823  0.37429118
   0.81180372  0.16938761  0.98227837
   0.79147588  0.10612307  0.90748434
   0.98582975  0.62293482  0.09370069
   0.00421632  0.67650102  0.17566033
   0.02997846  0.97175568  0.62899641
   0.92861126  0.99737688  0.61485718
   0.70775151  0.95188935  0.73999729
   0.66650338  0.04096314  0.75445547
   0.07821091  0.94202261  0.89489856
   0.10414465  0.94226740  0.79342514
   0.43477904  0.01452294  0.94377470
   0.53550550  0.98328659  0.95183502
   0.45053798  0.79160208  0.39640568
   0.45857842  0.76869398  0.29316235
   0.73151738  0.70201699  0.18078000
   0.68611075  0.61143817  0.17175212
   0.37056589  0.46506506  0.03128824
   0.45531875  0.46670529  0.10162849
   0.69788246  0.84801097  0.44466520
   0.74752227  0.75828189  0.45938621
   0.09519779  0.54632885  0.47900445
   0.14020225  0.48593257  0.54843925
   0.88530322  0.24378575  0.16574798
   0.85052539  0.27224167  0.07483437
   0.44661843  0.62204483  0.27035919
   0.38921928  0.65727961  0.19201737
   0.57986417  0.09739485  0.87103673
   0.50795404  0.14990550  0.82682147
   0.01735346  0.38635680  0.13094242
   0.10919401  0.34146396  0.08227411
   0.18627023  0.50599870  0.19671944
   0.10571786  0.49956678  0.12559436
   0.43536720  0.88046338  0.79595017
   0.34958181  0.84536041  0.69398374
   0.08262379  0.67021221  0.77174354
   0.07106505  0.74319843  0.70522969
   0.24078092  0.18304573  0.62004965
   0.14341283  0.17632135  0.65833205
   0.62859623  0.45373783  0.09326957
   0.58576639  0.53921790  0.07778669
   0.71377010  0.79602882  0.82900495
   0.79820266  0.84989366  0.86547607
   0.60378090  0.58931807  0.78290468
   0.53305470  0.52069312  0.80019060
   0.48129698  0.90800054  0.15032719
   0.45771347  0.98413034  0.07882301
   0.75853872  0.40474475  0.32176583
   0.67385195  0.35142689  0.36143822
   0.96045918  0.10008067  0.94980022
   0.06029424  0.07561737  0.97118951
   0.62682257  0.28232936  0.94848299